/*--------------------------------*- C++ -*----------------------------------*\
| =========                 |                                                 |
| \\      /  F ield         | OpenFOAM: The Open Source CFD Toolbox           |
|  \\    /   O peration     | Version:  v2012                                 |
|   \\  /    A nd           | Website:  www.openfoam.com                      |
|    \\/     M anipulation  |                                                 |
\*---------------------------------------------------------------------------*/
FoamFile
{
    version     2.0;
    format      ascii;
    class       volScalarField;
    location    "4000";
    object      epsilon;
}
// * * * * * * * * * * * * * * * * * * * * * * * * * * * * * * * * * * * * * //

dimensions      [0 2 -3 0 0 0 0];


internalField   nonuniform List<scalar> 
23800
(
0.200855
0.448365
0.606182
0.690515
0.694412
0.684081
0.679485
0.670273
0.661893
0.652953
0.645802
0.641174
0.63806
0.637288
0.637871
0.639738
0.64196
0.646171
0.649762
0.654789
0.659273
0.664532
0.669518
0.67474
0.679909
0.685001
0.689963
0.694733
0.699304
0.703631
0.707715
0.711524
0.715066
0.718322
0.7213
0.723991
0.726406
0.728536
0.730414
0.732005
0.733371
0.734458
0.735336
0.735958
0.736382
0.736579
0.736542
0.736308
0.73603
0.735327
0.734769
0.733776
0.732986
0.731763
0.730767
0.729302
0.728092
0.726391
0.724965
0.723045
0.721406
0.719292
0.717446
0.715159
0.713135
0.71068
0.708494
0.705902
0.703568
0.700861
0.698397
0.695594
0.693016
0.690132
0.687456
0.684504
0.681741
0.678732
0.675895
0.672835
0.669934
0.66683
0.663872
0.660729
0.65772
0.654541
0.651487
0.648274
0.645178
0.641932
0.638797
0.63552
0.632348
0.62904
0.625832
0.622493
0.619251
0.615881
0.612605
0.609205
0.605895
0.602464
0.599121
0.595658
0.592283
0.588788
0.58538
0.581853
0.578413
0.574855
0.571381
0.567796
0.564284
0.560674
0.557128
0.553483
0.549905
0.546229
0.542619
0.538912
0.535271
0.531533
0.52786
0.524093
0.520388
0.516592
0.512855
0.509031
0.505262
0.50141
0.49761
0.49373
0.489899
0.485992
0.48213
0.478197
0.474305
0.470346
0.466424
0.46244
0.458488
0.45448
0.450499
0.446468
0.442458
0.438404
0.434367
0.430291
0.426226
0.42213
0.418039
0.413924
0.409807
0.405673
0.401533
0.397381
0.39322
0.389048
0.38487
0.380684
0.376488
0.372286
0.368076
0.363861
0.359638
0.355411
0.351178
0.346942
0.342701
0.338459
0.334213
0.329967
0.325718
0.32147
0.317222
0.312976
0.308731
0.304491
0.300252
0.29602
0.291792
0.287572
0.283358
0.279154
0.274958
0.270773
0.266599
0.262438
0.258289
0.254156
0.250037
0.245935
0.241851
0.237786
0.23374
0.229714
0.225711
0.221731
0.217775
0.213843
0.209938
0.20606
0.20221
0.198391
0.194599
0.19084
0.187114
0.183422
0.179763
0.17614
0.172552
0.169003
0.165491
0.162018
0.158585
0.155192
0.15184
0.14853
0.145262
0.142038
0.138857
0.13572
0.132628
0.129581
0.12658
0.123625
0.120716
0.117853
0.115038
0.112269
0.109547
0.106874
0.104246
0.101668
0.0991337
0.0966491
0.0942183
0.0917702
0.0896246
0.0876494
0.0857346
0.0838358
0.0819629
0.0801127
0.0782904
0.0764989
0.0747389
0.073011
0.0713148
0.0696507
0.0680186
0.0664179
0.0648496
0.0633127
0.0618071
0.0603327
0.0588894
0.0574769
0.056095
0.0547433
0.0534216
0.0521296
0.0508668
0.049633
0.0484278
0.0472507
0.0461015
0.0449796
0.0438847
0.0428162
0.0417739
0.0407572
0.0397657
0.0387989
0.0378564
0.0369376
0.0360422
0.0351696
0.0343195
0.0334911
0.0326844
0.0318983
0.0311332
0.0303873
0.029662
0.0289544
0.0282673
0.0275953
0.0269451
0.0263058
0.0256913
0.0250814
0.0244992
0.0239163
0.0233619
0.022796
0.0222727
0.0216934
0.0212213
0.0203022
0.251758
0.577466
0.741911
0.761686
0.753228
0.722664
0.682057
0.634361
0.592689
0.556997
0.526536
0.500593
0.478559
0.459588
0.443455
0.429604
0.417583
0.407107
0.397878
0.389717
0.38243
0.375897
0.369989
0.364623
0.359713
0.3552
0.351021
0.347139
0.343502
0.340089
0.336859
0.333797
0.330873
0.328077
0.325386
0.322792
0.320278
0.317841
0.315464
0.313152
0.310882
0.308667
0.306482
0.304351
0.302237
0.300179
0.298121
0.296102
0.29409
0.292117
0.290155
0.28823
0.286359
0.28452
0.282721
0.280938
0.279186
0.277442
0.275725
0.27401
0.27232
0.270628
0.268962
0.267295
0.265652
0.264008
0.262388
0.260768
0.259172
0.257577
0.256006
0.254436
0.252889
0.251345
0.249823
0.248304
0.246807
0.245313
0.24384
0.24237
0.240919
0.239472
0.238043
0.236617
0.235208
0.233801
0.23241
0.231021
0.229646
0.228272
0.226912
0.225552
0.224204
0.222857
0.22152
0.220182
0.218854
0.217525
0.216205
0.214883
0.213568
0.212251
0.210941
0.209628
0.208321
0.207011
0.205706
0.204397
0.203093
0.201784
0.200479
0.199169
0.197863
0.196552
0.195244
0.193931
0.192621
0.191305
0.18999
0.18867
0.187352
0.186028
0.184705
0.183377
0.182049
0.180715
0.179382
0.178043
0.176704
0.175359
0.174014
0.172663
0.171312
0.169955
0.168598
0.167234
0.16587
0.1645
0.163129
0.161753
0.160375
0.158992
0.157607
0.156218
0.154826
0.15343
0.152031
0.150628
0.149223
0.147814
0.146402
0.144987
0.143569
0.142148
0.140723
0.139297
0.137866
0.136434
0.134999
0.133561
0.13212
0.130678
0.129233
0.127787
0.126337
0.124887
0.123434
0.121981
0.120525
0.11907
0.117612
0.116154
0.114695
0.113236
0.111776
0.110318
0.108858
0.1074
0.105942
0.104486
0.10303
0.101577
0.100125
0.0986753
0.0972276
0.0957836
0.0943419
0.0929043
0.0914697
0.0900399
0.0886139
0.0871931
0.0857771
0.0843667
0.082962
0.0815636
0.0801716
0.0787865
0.0774087
0.0760384
0.0746762
0.0733224
0.0719772
0.0706414
0.0693149
0.0679983
0.0666916
0.0653957
0.0641108
0.0628372
0.0615752
0.0603252
0.0590875
0.0578625
0.0566505
0.0554516
0.0542664
0.0530949
0.0519375
0.0507944
0.0496659
0.0485522
0.0474536
0.04637
0.0453021
0.0442495
0.0432129
0.0421919
0.0411873
0.0401984
0.0392263
0.0382699
0.0373306
0.0364069
0.035501
0.0346087
0.0337405
0.0328711
0.0320527
0.0312829
0.0305481
0.0298309
0.0291327
0.0284486
0.0277792
0.0271237
0.0264819
0.0258535
0.0252381
0.0246356
0.0240457
0.0234682
0.0229028
0.0223495
0.021808
0.0212783
0.0207602
0.0202536
0.0197583
0.0192743
0.0188013
0.0183393
0.017888
0.0174474
0.0170173
0.0165975
0.0161879
0.0157884
0.0153987
0.0150187
0.0146483
0.0142872
0.0139353
0.0135924
0.0132584
0.0129331
0.0126162
0.0123077
0.0120073
0.0117149
0.0114302
0.0111532
0.0108836
0.0106213
0.010366
0.0101177
0.00987618
0.00964095
0.00941276
0.00918965
0.00897438
0.00876247
0.00855934
0.00835836
0.00816535
0.00797578
0.00778927
0.00761385
0.00742955
0.00721028
0.621019
0.55398
0.47816
0.40864
0.363106
0.331179
0.306592
0.287191
0.271671
0.258897
0.248127
0.238905
0.230913
0.223912
0.217724
0.212216
0.207278
0.202831
0.198803
0.195136
0.191782
0.188703
0.185861
0.183233
0.180786
0.178503
0.176361
0.174348
0.172444
0.170642
0.168924
0.167289
0.165718
0.164213
0.162758
0.161358
0.159994
0.158671
0.15738
0.156122
0.154895
0.153694
0.152521
0.151368
0.15024
0.149129
0.148043
0.146979
0.145936
0.144911
0.143904
0.142913
0.141939
0.140978
0.140035
0.139104
0.138189
0.137285
0.136395
0.135516
0.134649
0.133792
0.132947
0.13211
0.131285
0.130467
0.129661
0.128862
0.128074
0.127293
0.126523
0.125759
0.125006
0.124259
0.123523
0.122793
0.122072
0.121359
0.120654
0.119956
0.119267
0.118584
0.11791
0.117241
0.116581
0.115926
0.115279
0.114637
0.114002
0.113371
0.112748
0.112128
0.111515
0.110906
0.110302
0.109701
0.109105
0.108513
0.107924
0.107338
0.106756
0.106176
0.1056
0.105025
0.104453
0.103882
0.103313
0.102745
0.102179
0.101614
0.10105
0.100485
0.0999224
0.0993591
0.0987963
0.0982331
0.0976701
0.0971064
0.0965424
0.0959774
0.0954119
0.0948451
0.0942774
0.0937083
0.0931381
0.0925661
0.0919927
0.0914175
0.0908406
0.0902616
0.0896806
0.0890975
0.0885122
0.0879245
0.0873345
0.0867419
0.0861468
0.085549
0.0849484
0.0843451
0.0837389
0.0831298
0.0825176
0.0819024
0.081284
0.0806627
0.0800378
0.0794101
0.0787787
0.0781444
0.0775063
0.0768654
0.0762205
0.0755727
0.074921
0.0742664
0.0736077
0.0729464
0.0722809
0.0716127
0.0709403
0.0702652
0.0695861
0.0689042
0.0682185
0.0675302
0.066838
0.0661433
0.0654449
0.0647441
0.0640398
0.0633331
0.0626231
0.061911
0.0611957
0.0604785
0.0597584
0.0590365
0.058312
0.057586
0.0568577
0.0561281
0.0553966
0.0546641
0.0539299
0.0531951
0.0524591
0.0517227
0.0509855
0.0502483
0.0495107
0.0487735
0.0480364
0.0473
0.0465642
0.0458296
0.045096
0.044364
0.0436336
0.0429051
0.0421788
0.0414549
0.0407337
0.0400152
0.0393002
0.0385885
0.0378802
0.0371759
0.0364758
0.0357801
0.0350891
0.0344029
0.0337219
0.0330463
0.0323763
0.031712
0.0310539
0.030402
0.0297566
0.0291178
0.0284859
0.027861
0.0272434
0.0266332
0.0260306
0.0254356
0.0248487
0.0242695
0.0236988
0.0231361
0.022582
0.0220361
0.0214992
0.0209703
0.0204513
0.0199392
0.0194391
0.0189438
0.0184612
0.0179953
0.0175454
0.0171083
0.016683
0.016268
0.0158628
0.0154669
0.01508
0.0147017
0.0143318
0.0139702
0.0136165
0.0132708
0.0129327
0.0126021
0.012279
0.0119633
0.0116548
0.0113534
0.0110591
0.0107717
0.0104912
0.0102174
0.00995026
0.00968969
0.00943559
0.00918785
0.00894637
0.00871107
0.00848181
0.00825852
0.00804106
0.00782936
0.00762328
0.00742274
0.00722759
0.00703779
0.00685313
0.00667361
0.006499
0.00632933
0.00616432
0.00600407
0.00584823
0.00569695
0.00554985
0.00540709
0.00526836
0.00513362
0.00500294
0.00487569
0.00475277
0.00463257
0.00451694
0.00440379
0.00429433
0.00418897
0.00408383
0.00398735
0.00388848
0.00376794
0.165952
0.161151
0.155956
0.151709
0.148297
0.145361
0.14266
0.140214
0.138009
0.135989
0.134112
0.132355
0.130705
0.129148
0.127673
0.126272
0.12494
0.123673
0.122466
0.121315
0.120217
0.11917
0.118169
0.117213
0.116299
0.115425
0.114587
0.113783
0.113011
0.112267
0.111549
0.110853
0.110179
0.109524
0.108887
0.108267
0.107664
0.107077
0.106504
0.105942
0.10539
0.104847
0.104311
0.103782
0.103258
0.102738
0.102224
0.101712
0.101205
0.1007
0.100199
0.0997004
0.0992044
0.0987108
0.0982195
0.0977303
0.0972434
0.0967584
0.0962756
0.0957947
0.0953158
0.0948386
0.0943631
0.0938897
0.0934182
0.0929486
0.0924808
0.0920148
0.0915508
0.0910886
0.0906285
0.0901703
0.0897142
0.08926
0.0888082
0.0883583
0.0879109
0.0874655
0.0870227
0.086582
0.0861438
0.0857079
0.0852745
0.0848434
0.0844149
0.0839886
0.0835649
0.0831433
0.0827243
0.0823074
0.0818929
0.0814804
0.0810702
0.0806619
0.0802558
0.0798514
0.079449
0.0790482
0.0786492
0.0782516
0.0778556
0.0774609
0.0770674
0.0766751
0.0762839
0.0758936
0.0755042
0.0751154
0.0747274
0.0743398
0.0739526
0.0735657
0.073179
0.0727924
0.0724058
0.0720191
0.0716322
0.071245
0.0708574
0.0704692
0.0700805
0.069691
0.0693007
0.0689096
0.0685175
0.0681243
0.0677299
0.0673344
0.0669374
0.0665392
0.0661393
0.065738
0.065335
0.0649303
0.0645237
0.0641154
0.063705
0.0632927
0.0628782
0.0624617
0.0620428
0.0616218
0.0611982
0.0607725
0.060344
0.0599134
0.0594798
0.0590441
0.0586051
0.0581642
0.0577197
0.0572733
0.0568232
0.0563711
0.0559152
0.0554574
0.0549957
0.0545321
0.0540645
0.053595
0.0531214
0.0526458
0.0521663
0.0516847
0.0511994
0.0507118
0.0502206
0.0497272
0.0492303
0.0487311
0.0482286
0.0477237
0.0472158
0.0467055
0.0461923
0.0456769
0.0451587
0.0446384
0.0441155
0.0435907
0.0430635
0.0425346
0.0420035
0.0414708
0.0409362
0.0404003
0.0398627
0.0393241
0.0387841
0.0382432
0.0377014
0.037159
0.0366159
0.0360725
0.0355289
0.0349852
0.0344417
0.0338985
0.0333557
0.0328137
0.0322726
0.0317325
0.0311937
0.0306562
0.0301207
0.0295868
0.029055
0.0285254
0.0279983
0.0274739
0.0269524
0.0264339
0.0259188
0.0254071
0.024899
0.0243948
0.0238947
0.0233988
0.0229072
0.0224203
0.0219381
0.0214607
0.0209885
0.0205215
0.0200598
0.0196037
0.0191532
0.0187084
0.0182697
0.0178368
0.0174101
0.0169895
0.0165755
0.0161675
0.0157665
0.0153712
0.0149837
0.0146019
0.014227
0.0138611
0.0135047
0.0131574
0.0128187
0.0124881
0.0121651
0.0118496
0.0115412
0.0112398
0.0109452
0.0106573
0.0103758
0.0101008
0.00983207
0.00956946
0.00931295
0.00906241
0.00881778
0.00857895
0.00834585
0.00811839
0.0078965
0.0076801
0.0074691
0.00726342
0.00706298
0.00686771
0.0066775
0.00649228
0.00631196
0.00613647
0.00596569
0.00579956
0.00563796
0.00548085
0.00532808
0.00517961
0.0050353
0.00489512
0.0047589
0.00462665
0.00449815
0.00437347
0.00425234
0.00413486
0.00402076
0.00391011
0.00380272
0.00369852
0.00359754
0.0034994
0.00340454
0.00331217
0.00322302
0.00313636
0.00305225
0.00297164
0.00289162
0.00281728
0.0027433
0.00264872
0.108677
0.108537
0.108462
0.108314
0.108202
0.107943
0.107716
0.10738
0.10708
0.106704
0.106354
0.105949
0.105563
0.105137
0.104727
0.104281
0.103853
0.103397
0.10295
0.102486
0.102027
0.101558
0.101091
0.10062
0.10015
0.0996805
0.0992134
0.0987485
0.0982867
0.0978284
0.0973759
0.0969283
0.0964855
0.0960468
0.0956121
0.095181
0.0947534
0.0943294
0.0939085
0.0934907
0.0930757
0.0926632
0.0922529
0.0918444
0.0914375
0.091032
0.0906275
0.0902238
0.0898208
0.0894184
0.0890163
0.0886145
0.0882129
0.0878116
0.0874101
0.0870089
0.0866075
0.0862062
0.0858047
0.0854033
0.0850019
0.0846004
0.0841987
0.0837974
0.083396
0.0829948
0.0825936
0.0821927
0.0817919
0.0813914
0.0809911
0.0805912
0.0801917
0.0797926
0.079394
0.078996
0.0785985
0.0782018
0.0778057
0.0774104
0.0770159
0.0766224
0.0762297
0.075838
0.0754473
0.0750576
0.074669
0.0742815
0.0738951
0.0735099
0.0731258
0.0727428
0.072361
0.0719803
0.0716008
0.0712224
0.0708451
0.0704689
0.0700937
0.0697196
0.0693464
0.0689743
0.068603
0.0682326
0.067863
0.0674942
0.067126
0.0667586
0.0663917
0.0660255
0.0656596
0.0652942
0.0649292
0.0645645
0.0641999
0.0638356
0.0634714
0.0631072
0.0627429
0.0623786
0.062014
0.0616493
0.0612842
0.0609188
0.0605529
0.0601865
0.0598195
0.059452
0.0590837
0.0587148
0.0583449
0.0579742
0.0576024
0.0572297
0.0568558
0.0564809
0.0561046
0.0557271
0.0553482
0.054968
0.0545862
0.054203
0.0538182
0.0534318
0.0530436
0.0526539
0.0522622
0.0518689
0.0514735
0.0510764
0.0506772
0.0502761
0.0498729
0.0494678
0.0490603
0.048651
0.0482393
0.0478257
0.0474097
0.0469916
0.0465711
0.0461486
0.0457236
0.0452965
0.0448671
0.0444355
0.0440016
0.0435656
0.0431272
0.0426867
0.042244
0.0417992
0.0413521
0.0409031
0.040452
0.0399989
0.0395438
0.0390869
0.0386281
0.0381677
0.0377054
0.0372417
0.0367763
0.0363095
0.0358413
0.035372
0.0349014
0.0344299
0.0339573
0.0334841
0.03301
0.0325355
0.0320604
0.0315852
0.0311097
0.0306342
0.0301588
0.0296837
0.029209
0.0287349
0.0282616
0.0277891
0.0273178
0.0268475
0.0263789
0.0259118
0.0254463
0.0249828
0.0245213
0.0240622
0.0236055
0.0231514
0.0227001
0.0222517
0.0218065
0.0213645
0.0209261
0.0204912
0.0200601
0.0196329
0.0192098
0.0187909
0.0183764
0.0179664
0.017561
0.0171604
0.0167646
0.0163739
0.0159882
0.0156078
0.0152327
0.0148629
0.0144987
0.0141399
0.0137871
0.0134395
0.0130982
0.0127624
0.0124324
0.0121089
0.0117926
0.0114835
0.0111815
0.0108865
0.0105981
0.0103163
0.0100408
0.00977156
0.00950842
0.00925132
0.00900003
0.00875465
0.00851486
0.00828068
0.00805203
0.00782882
0.00761096
0.00739837
0.00719098
0.00698872
0.00679151
0.00659926
0.00641192
0.00622939
0.00605161
0.00587849
0.00570997
0.00554595
0.00538635
0.00523111
0.00508013
0.00493334
0.00479065
0.00465198
0.00451724
0.00438636
0.00425923
0.0041358
0.00401595
0.00389966
0.00378675
0.00367724
0.00357096
0.00346791
0.00336792
0.003271
0.00317702
0.00308588
0.00299761
0.00291194
0.0028291
0.00274864
0.00267085
0.00259549
0.00252227
0.0024521
0.00238293
0.00231782
0.00225406
0.00217075
0.101752
0.102385
0.102974
0.103431
0.103723
0.103845
0.103832
0.103766
0.103666
0.103505
0.103345
0.103132
0.102935
0.102693
0.102466
0.102195
0.101943
0.101647
0.101367
0.101047
0.10074
0.100398
0.100066
0.0997048
0.0993511
0.0989758
0.0986051
0.0982173
0.0978322
0.0974338
0.0970365
0.0966301
0.0962234
0.0958111
0.0953973
0.0949804
0.0945613
0.0941407
0.0937186
0.0932955
0.0928713
0.0924465
0.092021
0.0915951
0.0911689
0.0907423
0.0903155
0.0898884
0.0894611
0.0890336
0.088606
0.0881781
0.0877502
0.0873221
0.0868939
0.0864656
0.0860372
0.0856087
0.0851802
0.0847516
0.084323
0.0838944
0.0834656
0.0830372
0.0826088
0.0821805
0.0817524
0.0813245
0.0808969
0.0804695
0.0800423
0.0796156
0.0791891
0.0787632
0.0783376
0.0779126
0.077488
0.0770641
0.0766408
0.0762181
0.0757962
0.075375
0.0749545
0.074535
0.0741162
0.0736984
0.0732815
0.0728656
0.0724506
0.0720367
0.0716238
0.0712119
0.0708012
0.0703915
0.0699829
0.0695754
0.069169
0.0687637
0.0683596
0.0679565
0.0675544
0.0671535
0.0667536
0.0663547
0.0659568
0.0655599
0.065164
0.064769
0.0643748
0.0639815
0.063589
0.0631973
0.0628063
0.0624161
0.0620264
0.0616373
0.0612488
0.0608608
0.0604733
0.0600861
0.0596993
0.0593128
0.0589266
0.0585405
0.0581545
0.0577687
0.0573829
0.0569973
0.0566115
0.0562256
0.0558395
0.0554531
0.0550664
0.0546794
0.0542919
0.053904
0.0535155
0.0531265
0.0527368
0.0523464
0.0519553
0.0515634
0.0511707
0.0507771
0.0503826
0.0499871
0.0495905
0.0491929
0.0487942
0.0483943
0.0479932
0.047591
0.0471874
0.0467826
0.0463763
0.0459689
0.0455598
0.0451496
0.0447377
0.0443245
0.0439097
0.0434935
0.0430758
0.0426566
0.0422358
0.0418136
0.0413898
0.0409645
0.0405377
0.0401094
0.0396796
0.0392483
0.0388155
0.0383814
0.0379458
0.037509
0.0370707
0.0366313
0.0361905
0.0357487
0.0353057
0.0348617
0.0344166
0.0339708
0.033524
0.0330765
0.0326283
0.0321796
0.0317303
0.0312807
0.0308308
0.0303808
0.0299307
0.0294806
0.0290307
0.0285811
0.0281319
0.0276832
0.0272353
0.0267881
0.0263419
0.0258968
0.025453
0.0250104
0.0245696
0.0241302
0.0236928
0.0232573
0.0228239
0.0223929
0.0219643
0.0215382
0.021115
0.0206946
0.0202773
0.0198632
0.0194524
0.0190451
0.0186414
0.0182415
0.0178454
0.0174534
0.0170656
0.016682
0.0163029
0.0159282
0.0155582
0.0151928
0.0148324
0.0144768
0.0141262
0.0137807
0.0134404
0.0131053
0.0127756
0.0124511
0.0121322
0.0118187
0.0115106
0.0112082
0.0109119
0.010622
0.0103383
0.010061
0.00978979
0.00952468
0.00926552
0.00901224
0.00876471
0.0085229
0.0082866
0.00805592
0.00783055
0.00761055
0.00739582
0.00718627
0.00698182
0.0067824
0.00658794
0.00639836
0.0062136
0.00603356
0.00585819
0.0056874
0.00552113
0.00535929
0.00520181
0.00504861
0.00489961
0.00475473
0.0046139
0.00447704
0.00434406
0.00421489
0.00408944
0.00396764
0.00384939
0.00373464
0.00362327
0.00351524
0.00341043
0.00330881
0.00321025
0.00311472
0.0030221
0.00293234
0.00284537
0.00276107
0.00267946
0.00260032
0.00252378
0.00244956
0.00237775
0.0023083
0.00224084
0.00217611
0.00211265
0.00205243
0.00199377
0.00191669
0.108164
0.108857
0.109513
0.110005
0.110316
0.110405
0.11036
0.110255
0.110056
0.109848
0.109559
0.109291
0.108977
0.108675
0.108347
0.10802
0.107683
0.107332
0.106984
0.106616
0.106255
0.10587
0.105492
0.105093
0.104699
0.104284
0.103872
0.103443
0.103016
0.102574
0.102133
0.101681
0.101228
0.100767
0.100304
0.099835
0.0993638
0.0988887
0.0984109
0.0979305
0.0974479
0.0969634
0.0964772
0.0959897
0.0955009
0.0950111
0.0945204
0.094029
0.0935371
0.0930447
0.092552
0.0920589
0.0915658
0.0910726
0.0905794
0.0900863
0.0895933
0.0891005
0.088608
0.0881157
0.0876239
0.0871322
0.086641
0.0861504
0.0856603
0.0851707
0.0846818
0.0841935
0.0837059
0.0832189
0.0827327
0.0822473
0.0817627
0.0812789
0.0807961
0.0803141
0.0798331
0.079353
0.078874
0.078396
0.077919
0.0774432
0.0769685
0.076495
0.0760226
0.0755515
0.0750817
0.0746131
0.0741458
0.0736798
0.0732151
0.0727518
0.0722899
0.0718294
0.0713703
0.0709125
0.0704562
0.0700013
0.0695478
0.0690958
0.0686451
0.0681959
0.067748
0.0673016
0.0668565
0.0664127
0.0659704
0.0655293
0.0650895
0.064651
0.0642138
0.0637777
0.0633429
0.0629092
0.0624766
0.0620451
0.0616146
0.0611852
0.0607567
0.0603291
0.0599025
0.0594766
0.0590516
0.0586273
0.0582037
0.0577809
0.0573583
0.0569361
0.0565143
0.0560929
0.0556719
0.0552513
0.054831
0.0544109
0.0539911
0.0535715
0.053152
0.0527326
0.0523132
0.0518939
0.0514744
0.0510549
0.0506352
0.0502153
0.0497952
0.0493748
0.0489541
0.048533
0.0481115
0.0476895
0.0472671
0.0468442
0.0464206
0.0459966
0.0455718
0.0451465
0.0447204
0.0442938
0.0438662
0.043438
0.043009
0.0425792
0.0421487
0.0417174
0.0412853
0.0408523
0.0404185
0.0399839
0.0395484
0.0391121
0.038675
0.0382371
0.0377984
0.037359
0.0369188
0.0364779
0.0360363
0.0355941
0.0351513
0.0347079
0.034264
0.0338197
0.033375
0.03293
0.0324846
0.0320391
0.0315935
0.0311478
0.0307021
0.0302566
0.0298113
0.0293663
0.0289217
0.0284775
0.028034
0.0275912
0.0271493
0.0267082
0.0262682
0.0258294
0.0253919
0.0249558
0.0245213
0.0240883
0.0236574
0.0232282
0.0228012
0.0223763
0.0219539
0.0215339
0.0211165
0.0207019
0.0202902
0.0198816
0.0194761
0.0190739
0.0186751
0.0182799
0.0178884
0.0175007
0.0171169
0.0167372
0.0163617
0.0159904
0.0156235
0.0152611
0.0149033
0.0145502
0.0142018
0.0138583
0.0135197
0.0131861
0.0128577
0.0125343
0.0122162
0.0119032
0.0115956
0.0112934
0.0109965
0.010705
0.0104191
0.0101391
0.00986505
0.00959689
0.00933462
0.00907818
0.00882748
0.00858248
0.00834306
0.0081092
0.00788073
0.00765774
0.00743994
0.0072274
0.00702
0.00681768
0.00662036
0.00642796
0.00624041
0.00605763
0.00587956
0.00570612
0.00553723
0.00537282
0.00521281
0.00505713
0.00490569
0.00475844
0.00461527
0.00447612
0.00434091
0.00420956
0.00408198
0.00395811
0.00383785
0.00372113
0.00360787
0.00349799
0.0033914
0.00328805
0.00318783
0.00309068
0.00299651
0.00290526
0.00281683
0.00273118
0.00264821
0.00256783
0.00249004
0.00241466
0.00234175
0.00227113
0.00220279
0.00213673
0.00207262
0.00201103
0.00195086
0.00189351
0.00183765
0.00176442
0.119396
0.119962
0.120468
0.120827
0.120983
0.120944
0.120793
0.120576
0.120212
0.119869
0.119422
0.119006
0.118537
0.118085
0.117609
0.117139
0.11666
0.116181
0.1157
0.115216
0.11473
0.11424
0.11375
0.113253
0.112755
0.112249
0.111743
0.111228
0.110712
0.11019
0.109665
0.109134
0.1086
0.108062
0.10752
0.106975
0.106427
0.105876
0.105321
0.104765
0.104206
0.103645
0.103082
0.102517
0.101951
0.101384
0.100816
0.100247
0.0996774
0.0991071
0.0985366
0.0979656
0.0973947
0.0968237
0.0962529
0.0956823
0.0951121
0.0945422
0.093973
0.0934041
0.0928362
0.0922687
0.0917021
0.0911364
0.0905716
0.0900077
0.089445
0.0888832
0.0883227
0.0877633
0.0872051
0.0866481
0.0860926
0.0855382
0.0849853
0.0844338
0.0838837
0.0833351
0.082788
0.0822424
0.0816984
0.0811559
0.0806151
0.0800759
0.0795384
0.0790025
0.0784684
0.0779359
0.0774053
0.0768763
0.0763492
0.0758238
0.0753003
0.0747786
0.0742587
0.0737406
0.0732243
0.0727099
0.0721974
0.0716867
0.0711778
0.0706708
0.0701656
0.0696622
0.0691607
0.0686609
0.068163
0.0676668
0.0671724
0.0666797
0.0661888
0.0656996
0.065212
0.064726
0.0642417
0.0637589
0.0632778
0.0627981
0.0623199
0.0618432
0.0613679
0.060894
0.0604214
0.0599502
0.0594802
0.0590114
0.0585439
0.0580776
0.0576123
0.0571481
0.0566849
0.0562227
0.0557613
0.0553008
0.0548412
0.0543823
0.0539241
0.0534667
0.0530099
0.0525537
0.052098
0.0516429
0.0511882
0.0507339
0.0502801
0.0498266
0.0493734
0.0489204
0.0484677
0.0480152
0.0475628
0.0471106
0.0466584
0.0462063
0.0457542
0.0453021
0.0448499
0.0443979
0.0439456
0.0434932
0.0430407
0.0425881
0.0421351
0.0416818
0.0412283
0.0407746
0.0403207
0.0398666
0.0394123
0.0389579
0.0385033
0.0380485
0.0375936
0.0371386
0.0366834
0.0362282
0.035773
0.0353177
0.0348624
0.0344072
0.033952
0.033497
0.0330422
0.0325877
0.0321334
0.0316795
0.031226
0.0307731
0.0303206
0.0298689
0.0294179
0.0289677
0.0285184
0.0280701
0.0276228
0.0271767
0.0267319
0.0262885
0.0258465
0.0254062
0.0249675
0.0245306
0.0240958
0.0236628
0.0232322
0.0228037
0.0223777
0.0219542
0.0215333
0.0211153
0.0207001
0.020288
0.019879
0.0194732
0.0190709
0.0186721
0.0182769
0.0178855
0.0174979
0.0171143
0.0167347
0.0163594
0.0159884
0.0156217
0.0152596
0.014902
0.0145491
0.0142009
0.0138577
0.0135193
0.0131859
0.0128575
0.0125343
0.0122161
0.0119033
0.0115957
0.0112934
0.0109964
0.0107047
0.0104185
0.0101377
0.00986258
0.00959317
0.00932951
0.00907158
0.00881937
0.00857281
0.00833186
0.00809643
0.0078665
0.00764192
0.00742277
0.00720877
0.007
0.00679634
0.00659773
0.00640408
0.00621532
0.00603139
0.00585219
0.00567766
0.00550773
0.00534231
0.00518134
0.00502473
0.0048724
0.00472428
0.0045803
0.00444036
0.00430439
0.00417232
0.00404406
0.00391953
0.00379865
0.00368134
0.00356752
0.00345711
0.00335003
0.0032462
0.00314556
0.00304799
0.00295345
0.00286184
0.0027731
0.00268715
0.0026039
0.0025233
0.00244526
0.00236973
0.0022966
0.00222586
0.00215738
0.00209112
0.00202711
0.00196502
0.0019053
0.00184711
0.00179153
0.00173726
0.00166656
0.132172
0.132535
0.132822
0.132956
0.132908
0.132752
0.132429
0.132074
0.131536
0.131046
0.130442
0.129872
0.129247
0.128639
0.128012
0.127388
0.126763
0.126139
0.125519
0.1249
0.124283
0.123668
0.123054
0.122441
0.121828
0.121214
0.120599
0.119984
0.119367
0.118748
0.118128
0.117506
0.116881
0.116255
0.115626
0.114996
0.114364
0.113729
0.113093
0.112455
0.111815
0.111174
0.110531
0.109888
0.109243
0.108597
0.10795
0.107303
0.106655
0.106006
0.105358
0.104709
0.10406
0.103412
0.102764
0.102116
0.101468
0.100822
0.100175
0.0995301
0.0988858
0.0982422
0.0975998
0.0969585
0.0963184
0.0956796
0.0950421
0.094406
0.0937715
0.0931384
0.0925069
0.091877
0.0912489
0.0906224
0.0899978
0.0893749
0.088754
0.0881349
0.0875177
0.0869025
0.0862893
0.085678
0.0850689
0.0844618
0.0838568
0.0832539
0.0826532
0.0820546
0.0814583
0.080864
0.0802721
0.0796823
0.0790947
0.0785094
0.0779264
0.0773455
0.076767
0.0761907
0.0756167
0.075045
0.0744755
0.0739083
0.0733434
0.0727806
0.0722202
0.071662
0.071106
0.0705522
0.0700007
0.0694513
0.068904
0.068359
0.0678161
0.0672752
0.0667364
0.0661997
0.0656651
0.0651324
0.0646017
0.0640729
0.0635461
0.0630211
0.0624979
0.0619766
0.061457
0.0609392
0.0604231
0.0599087
0.0593959
0.0588847
0.0583751
0.0578669
0.0573602
0.0568549
0.056351
0.0558484
0.0553471
0.054847
0.0543482
0.0538505
0.053354
0.0528585
0.0523641
0.0518707
0.0513783
0.0508867
0.0503961
0.0499064
0.0494174
0.0489292
0.0484418
0.0479551
0.0474691
0.0469838
0.046499
0.046015
0.0455313
0.0450485
0.0445659
0.044084
0.0436025
0.0431215
0.042641
0.042161
0.0416814
0.0412022
0.0407234
0.0402451
0.0397671
0.0392896
0.0388125
0.0383359
0.0378597
0.0373839
0.0369086
0.0364339
0.0359596
0.0354859
0.0350128
0.0345404
0.0340685
0.0335974
0.033127
0.0326574
0.0321887
0.0317208
0.031254
0.0307881
0.0303233
0.0298596
0.029397
0.0289357
0.0284758
0.0280174
0.0275605
0.0271053
0.0266518
0.0262001
0.0257504
0.0253027
0.0248572
0.0244138
0.0239729
0.0235343
0.0230984
0.022665
0.0222344
0.0218068
0.0213821
0.0209605
0.0205422
0.0201272
0.0197157
0.0193077
0.0189034
0.0185028
0.0181062
0.0177135
0.017325
0.0169406
0.0165605
0.0161849
0.0158137
0.0154471
0.0150851
0.014728
0.0143756
0.0140281
0.0136857
0.0133482
0.0130159
0.0126888
0.0123668
0.0120501
0.0117388
0.0114327
0.011132
0.0108368
0.0105469
0.0102624
0.00998348
0.0097101
0.00944238
0.00918033
0.00892398
0.0086733
0.00842825
0.0081888
0.00795487
0.00772644
0.00750337
0.00728574
0.00707326
0.00686604
0.00666395
0.00646692
0.00627487
0.00608772
0.00590541
0.00572785
0.00555497
0.00538669
0.00522293
0.00506362
0.00490868
0.00475802
0.00461157
0.00446924
0.00433096
0.00419665
0.00406622
0.00393959
0.00381668
0.00369741
0.00358169
0.00346946
0.00336062
0.00325509
0.0031528
0.00305367
0.0029576
0.00286454
0.0027744
0.0026871
0.00260257
0.00252072
0.00244151
0.00236482
0.00229063
0.00221882
0.00214937
0.00208218
0.00201717
0.00195437
0.00189351
0.00183492
0.00177792
0.00172341
0.00167003
0.00160106
0.144831
0.14497
0.144986
0.144911
0.144686
0.144386
0.143859
0.143367
0.142684
0.142055
0.14131
0.140599
0.139836
0.139085
0.138322
0.13756
0.136801
0.136048
0.135299
0.134556
0.133819
0.133087
0.132359
0.131635
0.130914
0.130196
0.129481
0.128767
0.128054
0.127342
0.12663
0.125919
0.125208
0.124497
0.123785
0.123073
0.12236
0.121647
0.120933
0.120218
0.119502
0.118786
0.118069
0.117352
0.116633
0.115915
0.115196
0.114476
0.113757
0.113037
0.112317
0.111598
0.110878
0.110159
0.10944
0.108722
0.108005
0.107288
0.106572
0.105856
0.105142
0.104429
0.103717
0.103007
0.102298
0.10159
0.100883
0.100179
0.0994756
0.0987742
0.0980747
0.097377
0.0966813
0.0959874
0.0952957
0.0946059
0.0939184
0.0932329
0.0925498
0.0918687
0.0911901
0.0905137
0.0898397
0.0891681
0.088499
0.0878322
0.0871679
0.0865061
0.0858469
0.08519
0.0845358
0.0838841
0.083235
0.0825885
0.0819445
0.0813032
0.0806644
0.0800282
0.0793947
0.0787638
0.0781355
0.0775098
0.0768867
0.0762662
0.0756484
0.0750331
0.0744205
0.0738103
0.0732028
0.0725978
0.0719954
0.0713955
0.0707981
0.0702032
0.0696108
0.0690208
0.0684332
0.067848
0.0672653
0.0666848
0.0661067
0.0655309
0.0649573
0.064386
0.0638169
0.0632499
0.0626851
0.0621224
0.0615618
0.0610032
0.0604466
0.0598919
0.0593393
0.0587884
0.0582395
0.0576923
0.0571469
0.0566033
0.0560613
0.055521
0.0549824
0.0544453
0.0539098
0.0533757
0.0528432
0.0523121
0.0517824
0.0512541
0.0507272
0.0502015
0.0496771
0.049154
0.0486321
0.0481114
0.0475918
0.0470734
0.0465561
0.0460401
0.0455249
0.0450108
0.0444978
0.0439858
0.0434749
0.042965
0.0424561
0.0419482
0.0414413
0.0409353
0.0404303
0.0399264
0.0394234
0.0389214
0.0384204
0.0379204
0.0374215
0.0369236
0.0364269
0.0359312
0.0354367
0.0349433
0.0344512
0.0339603
0.0334707
0.0329824
0.0324955
0.03201
0.031526
0.0310436
0.0305627
0.0300836
0.0296062
0.0291306
0.0286569
0.0281851
0.0277154
0.0272478
0.0267823
0.0263192
0.0258584
0.0254001
0.0249443
0.0244912
0.0240409
0.0235934
0.0231489
0.0227073
0.0222689
0.0218338
0.0214021
0.0209738
0.0205491
0.020128
0.0197107
0.0192972
0.0188876
0.0184822
0.0180809
0.0176839
0.0172912
0.0169031
0.0165194
0.0161404
0.0157662
0.0153967
0.0150321
0.0146725
0.0143179
0.0139684
0.0136241
0.013285
0.0129512
0.0126226
0.0122995
0.0119817
0.0116694
0.0113626
0.0110612
0.0107654
0.010475
0.0101902
0.00991094
0.00963729
0.00936932
0.00910704
0.00885047
0.00859958
0.00835436
0.00811477
0.00788073
0.00765223
0.00742915
0.00721154
0.00699915
0.00679205
0.00659013
0.00639331
0.00620153
0.00601469
0.00583273
0.00565556
0.00548311
0.00531529
0.00515203
0.00499325
0.00483886
0.00468879
0.00454294
0.00440124
0.00426361
0.00412997
0.00400022
0.00387428
0.00375208
0.00363353
0.00351855
0.00340705
0.00329895
0.00319417
0.00309263
0.00299424
0.00289894
0.00280663
0.00271724
0.0026307
0.00254692
0.00246582