/*--------------------------------*- C++ -*----------------------------------*\
| =========                 |                                                 |
| \\      /  F ield         | OpenFOAM: The Open Source CFD Toolbox           |
|  \\    /   O peration     | Version:  v2012                                 |
|   \\  /    A nd           | Website:  www.openfoam.com                      |
|    \\/     M anipulation  |                                                 |
\*---------------------------------------------------------------------------*/
FoamFile
{
    version     2.0;
    format      ascii;
    class       volScalarField;
    location    "4000";
    object      k;
}
// * * * * * * * * * * * * * * * * * * * * * * * * * * * * * * * * * * * * * //

dimensions      [0 2 -2 0 0 0 0];


internalField   nonuniform List<scalar> 
23800
(
0.00424282
0.0059175
0.00786206
0.0085072
0.00844336
0.00840491
0.00834098
0.00828399
0.0082015
0.00813095
0.00807137
0.00803271
0.0080066
0.0080001
0.00800581
0.00801748
0.0080439
0.0080689
0.00810834
0.00814245
0.00818546
0.00822496
0.00826838
0.0083104
0.00835295
0.00839468
0.0084351
0.00847401
0.00851107
0.0085462
0.00857918
0.00861
0.00863849
0.00866474
0.00868863
0.00871027
0.00872958
0.00874671
0.00876162
0.00877447
0.00878525
0.00879405
0.00880095
0.008806
0.00880931
0.00881096
0.00881048
0.00880932
0.00880552
0.00880213
0.00879527
0.00878978
0.00878097
0.00877384
0.00876309
0.00875427
0.00874159
0.00873104
0.00871651
0.00870422
0.00868799
0.00867402
0.00865638
0.00864074
0.00862157
0.00860457
0.00858416
0.00856588
0.00854441
0.00852496
0.0085026
0.0084821
0.00845896
0.00843755
0.00841375
0.00839153
0.00836714
0.00834421
0.00831931
0.00829574
0.00827039
0.00824625
0.00822048
0.00819583
0.00816967
0.00814454
0.00811801
0.00809243
0.00806554
0.00803955
0.0080123
0.0079859
0.0079583
0.00793151
0.00790355
0.00787637
0.00784806
0.00782049
0.00779182
0.00776387
0.00773482
0.00770649
0.00767707
0.00764834
0.00761854
0.00758943
0.00755923
0.00752972
0.00749913
0.00746922
0.00743825
0.00740791
0.00737662
0.00734581
0.00731408
0.00728288
0.00725073
0.00721911
0.00718654
0.00715449
0.00712151
0.00708904
0.00705564
0.00702272
0.0069889
0.00695554
0.00692131
0.0068875
0.00685283
0.00681857
0.00678348
0.00674876
0.00671324
0.00667805
0.00664209
0.00660643
0.00657004
0.00653391
0.00649708
0.00646046
0.0064232
0.00638609
0.00634839
0.00631079
0.00627265
0.00623456
0.00619597
0.00615738
0.00611834
0.00607925
0.00603977
0.00600017
0.00596024
0.00592015
0.00587977
0.00583918
0.00579835
0.00575727
0.00571597
0.00567444
0.00563269
0.00559068
0.00554847
0.00550601
0.00546335
0.00542044
0.00537733
0.00533399
0.00529045
0.00524669
0.00520273
0.00515855
0.00511419
0.00506962
0.00502487
0.00497992
0.0049348
0.0048895
0.00484404
0.0047984
0.00475261
0.00470667
0.00466059
0.00461436
0.00456802
0.00452154
0.00447496
0.00442826
0.00438148
0.00433461
0.00428766
0.00424063
0.00419356
0.00414642
0.00409926
0.00405206
0.00400485
0.00395762
0.00391041
0.0038632
0.00381602
0.00376889
0.00372179
0.00367478
0.00362781
0.00358095
0.00353419
0.00348753
0.003441
0.00339461
0.00334836
0.00330228
0.00325637
0.00321066
0.00316514
0.00311983
0.00307474
0.0030299
0.00298529
0.00294095
0.00289688
0.00285309
0.00280959
0.00276639
0.00272351
0.00268095
0.00263873
0.00259685
0.00255532
0.00251416
0.00247336
0.00243295
0.00239291
0.00235329
0.00231402
0.00227521
0.0022368
0.00219807
0.00216347
0.00213175
0.00210044
0.0020694
0.00203843
0.00200764
0.00197708
0.0019468
0.00191683
0.00188717
0.00185783
0.00182881
0.00180013
0.00177177
0.00174377
0.00171611
0.0016888
0.00166183
0.00163522
0.00160897
0.00158307
0.00155754
0.00153237
0.00150756
0.00148311
0.00145903
0.00143532
0.00141196
0.00138898
0.00136635
0.00134408
0.00132218
0.00130063
0.00127944
0.00125861
0.00123812
0.00121799
0.0011982
0.00117876
0.00115966
0.00114089
0.00112246
0.00110436
0.00108658
0.00106914
0.00105199
0.00103518
0.00101865
0.00100247
0.000986523
0.000970966
0.000955545
0.000940605
0.000925659
0.000911279
0.000896765
0.000882854
0.00086854
0.000855195
0.0008403
0.000828066
0.000803981
0.00594665
0.0114177
0.0138119
0.0147691
0.0156406
0.015932
0.0158543
0.0157153
0.0155638
0.0154106
0.0152686
0.0151467
0.0150419
0.0149558
0.0148845
0.0148258
0.0147768
0.014736
0.0147016
0.0146722
0.0146459
0.014622
0.0145995
0.0145782
0.0145567
0.0145358
0.0145128
0.0144913
0.0144661
0.0144428
0.014415
0.0143893
0.0143586
0.0143302
0.0142969
0.0142657
0.0142299
0.0141961
0.0141582
0.014122
0.0140822
0.014044
0.0140027
0.0139627
0.0139204
0.0138791
0.013836
0.0137937
0.0137504
0.0137075
0.0136641
0.0136208
0.0135772
0.0135332
0.013489
0.0134443
0.0133996
0.0133543
0.0133092
0.0132637
0.0132184
0.0131729
0.0131277
0.0130825
0.0130376
0.0129929
0.0129486
0.0129046
0.0128611
0.012818
0.0127754
0.0127332
0.0126916
0.0126504
0.0126099
0.0125697
0.0125302
0.012491
0.0124525
0.0124143
0.0123768
0.0123396
0.0123029
0.0122665
0.0122307
0.0121951
0.01216
0.0121252
0.0120907
0.0120565
0.0120226
0.011989
0.0119556
0.0119224
0.0118894
0.0118566
0.0118239
0.0117914
0.011759
0.0117267
0.0116945
0.0116623
0.0116302
0.0115981
0.011566
0.0115339
0.0115019
0.0114697
0.0114375
0.0114053
0.011373
0.0113405
0.011308
0.0112754
0.0112426
0.0112097
0.0111766
0.0111433
0.01111
0.0110763
0.0110426
0.0110084
0.0109743
0.0109396
0.010905
0.0108699
0.0108348
0.010799
0.0107633
0.0107269
0.0106907
0.0106536
0.0106167
0.0105789
0.0105413
0.0105028
0.0104644
0.0104251
0.010386
0.0103458
0.0103058
0.0102648
0.0102239
0.0101819
0.0101402
0.0100972
0.0100545
0.0100106
0.00996688
0.0099219
0.00987714
0.00983109
0.00978524
0.00973809
0.00969113
0.00964284
0.00959472
0.00954527
0.00949594
0.00944532
0.00939479
0.00934292
0.00929115
0.00923802
0.009185
0.0091306
0.00907629
0.00902061
0.008965
0.00890802
0.00885111
0.00879283
0.00873459
0.00867501
0.00861545
0.00855457
0.00849369
0.00843153
0.00836934
0.00830591
0.00824242
0.00817775
0.00811299
0.0080471
0.00798109
0.00791402
0.0078468
0.00777859
0.00771019
0.00764089
0.00757137
0.00750103
0.00743043
0.00735911
0.00728749
0.00721527
0.0071427
0.00706963
0.00699619
0.00692233
0.00684813
0.00677356
0.00669868
0.00662351
0.00654801
0.00647231
0.00639637
0.00632021
0.00624389
0.00616741
0.00609082
0.00601413
0.00593738
0.00586058
0.00578377
0.00570698
0.00563022
0.00555354
0.00547695
0.00540049
0.00532418
0.00524804
0.00517213
0.00509643
0.00502101
0.00494587
0.00487106
0.00479656
0.00472247
0.00464872
0.00457545
0.00450254
0.00443018
0.00435821
0.00428684
0.0042159
0.00414559
0.00407557
0.00400642
0.0039379
0.00387025
0.00380333
0.00373732
0.00367221
0.00360804
0.00354479
0.00348243
0.00342092
0.00336023
0.00330037
0.0032413
0.00318302
0.00312554
0.00306884
0.00301293
0.00295779
0.00290345
0.00284989
0.00279712
0.00274514
0.00269395
0.00264355
0.00259394
0.00254512
0.00249709
0.00244985
0.00240339
0.00235772
0.00231283
0.00226872
0.00222538
0.00218282
0.00214102
0.00209998
0.0020597
0.00202017
0.00198137
0.00194332
0.00190599
0.0018694
0.00183349
0.00179833
0.00176382
0.00173004
0.0016969
0.00166447
0.00163267
0.00160153
0.00157105
0.00154109
0.00151198
0.00148305
0.0014553
0.00142732
0.00140075
0.00137353
0.00134829
0.00132106
0.00129711
0.00125535
0.0118633
0.0119014
0.0119607
0.0122019
0.0124739
0.0127925
0.0130586
0.0132821
0.0134748
0.0136403
0.0137843
0.0139133
0.0140316
0.0141428
0.0142478
0.0143488
0.0144453
0.0145384
0.0146279
0.0147139
0.0147968
0.0148764
0.0149524
0.0150249
0.0150932
0.0151578
0.0152179
0.0152742
0.015326
0.0153739
0.0154172
0.0154568
0.015492
0.0155237
0.0155511
0.0155753
0.0155955
0.0156128
0.0156265
0.0156375
0.0156452
0.0156506
0.0156529
0.0156521
0.0156502
0.0156446
0.0156392
0.0156288
0.0156201
0.0156063
0.0155944
0.0155778
0.0155631
0.0155442
0.0155271
0.0155063
0.0154872
0.0154648
0.015444
0.0154204
0.0153982
0.0153736
0.0153501
0.0153247
0.0153003
0.0152743
0.0152491
0.0152227
0.015197
0.0151703
0.0151442
0.0151175
0.0150911
0.0150644
0.0150379
0.0150112
0.0149848
0.0149582
0.0149319
0.0149055
0.0148793
0.0148531
0.0148271
0.0148011
0.0147753
0.0147495
0.0147239
0.0146983
0.0146729
0.0146475
0.0146222
0.0145969
0.0145717
0.0145465
0.0145214
0.0144962
0.0144712
0.014446
0.0144209
0.0143956
0.0143704
0.014345
0.0143197
0.0142941
0.0142686
0.0142427
0.0142169
0.0141908
0.0141647
0.0141382
0.0141117
0.0140848
0.0140579
0.0140305
0.0140031
0.0139751
0.0139473
0.0139186
0.0138902
0.0138608
0.0138317
0.0138017
0.0137718
0.013741
0.0137104
0.0136786
0.0136472
0.0136146
0.0135822
0.0135486
0.0135153
0.0134806
0.0134463
0.0134104
0.013375
0.013338
0.0133014
0.0132632
0.0132254
0.0131858
0.0131467
0.0131058
0.0130653
0.0130229
0.012981
0.0129371
0.0128937
0.0128483
0.0128033
0.0127562
0.0127096
0.0126609
0.0126126
0.0125621
0.012512
0.0124597
0.0124078
0.0123537
0.0122999
0.0122439
0.0121882
0.0121302
0.0120726
0.0120126
0.011953
0.011891
0.0118294
0.0117653
0.0117016
0.0116354
0.0115696
0.0115014
0.0114335
0.0113632
0.0112932
0.0112208
0.0111486
0.0110741
0.0109999
0.0109233
0.0108469
0.0107684
0.0106899
0.0106094
0.0105289
0.0104464
0.0103639
0.0102796
0.0101951
0.0101089
0.0100226
0.00993463
0.00984647
0.00975688
0.00966699
0.00957583
0.0094843
0.00939167
0.00929862
0.00920462
0.00911015
0.00901492
0.00891916
0.00882279
0.00872586
0.00862847
0.00853061
0.00843232
0.00833364
0.00823461
0.00813527
0.00803565
0.0079358
0.00783576
0.00773555
0.00763523
0.00753483
0.00743439
0.00733396
0.00723356
0.00713326
0.00703307
0.00693306
0.00683324
0.00673367
0.00663438
0.00653542
0.0064368
0.0063386
0.00624081
0.00614352
0.0060467
0.00595046
0.00585474
0.00575967
0.00566519
0.00557142
0.00547823
0.00538575
0.00529398
0.005203
0.00511282
0.00502353
0.00493518
0.00484783
0.0047615
0.00467622
0.00459199
0.0045088
0.00442667
0.00434559
0.00426555
0.00418659
0.00410868
0.00403183
0.00395606
0.00388135
0.00380773
0.00373519
0.00366374
0.00359337
0.00352409
0.00345591
0.00338881
0.00332281
0.0032579
0.00319408
0.00313134
0.00306969
0.00300912
0.00294962
0.00289119
0.00283382
0.00277751
0.00272225
0.00266803
0.00261484
0.00256268
0.00251152
0.00246138
0.00241221
0.00236405
0.00231682
0.0022706
0.00222527
0.00218092
0.00213745
0.0020949
0.00205327
0.00201241
0.00197262
0.0019333
0.00189535
0.00185744
0.00182121
0.00178456
0.00174993
0.0017144
0.00168066
0.00163002
0.0147215
0.0148644
0.0152299
0.0155903
0.0160162
0.0163883
0.0166805
0.0169111
0.0170919
0.0172321
0.0173404
0.0174254
0.0174926
0.0175465
0.0175903
0.0176272
0.0176587
0.0176867
0.0177121
0.0177358
0.0177584
0.0177803
0.0178017
0.017823
0.0178439
0.0178649
0.0178857
0.0179063
0.0179266
0.0179465
0.0179661
0.0179851
0.0180035
0.0180212
0.018038
0.0180537
0.0180684
0.0180818
0.018094
0.0181049
0.0181144
0.0181226
0.0181295
0.018135
0.0181391
0.018142
0.0181433
0.0181429
0.0181421
0.0181385
0.0181357
0.0181298
0.0181249
0.0181169
0.0181099
0.0180999
0.018091
0.018079
0.0180683
0.0180547
0.0180421
0.018027
0.0180128
0.0179963
0.0179807
0.0179629
0.017946
0.0179271
0.0179089
0.0178891
0.0178698
0.0178491
0.0178289
0.0178074
0.0177863
0.0177642
0.0177424
0.0177197
0.0176972
0.017674
0.0176509
0.0176272
0.0176036
0.0175795
0.0175554
0.0175309
0.0175064
0.0174816
0.0174567
0.0174315
0.0174062
0.0173807
0.017355
0.0173291
0.0173031
0.0172767
0.0172503
0.0172236
0.0171967
0.0171695
0.0171423
0.0171145
0.0170868
0.0170586
0.0170303
0.0170015
0.0169727
0.0169433
0.0169139
0.0168839
0.0168538
0.0168231
0.0167924
0.0167608
0.0167294
0.0166971
0.0166648
0.0166316
0.0165985
0.0165644
0.0165304
0.0164953
0.0164603
0.0164241
0.0163881
0.0163508
0.0163137
0.0162752
0.016237
0.0161973
0.0161578
0.0161167
0.0160759
0.0160335
0.0159913
0.0159474
0.0159038
0.0158583
0.0158132
0.0157661
0.0157194
0.0156706
0.0156222
0.0155717
0.0155215
0.0154692
0.0154172
0.0153629
0.015309
0.0152528
0.0151969
0.0151387
0.0150807
0.0150203
0.0149603
0.0148977
0.0148355
0.0147707
0.0147062
0.0146392
0.0145724
0.0145029
0.0144338
0.014362
0.0142904
0.0142162
0.0141422
0.0140655
0.013989
0.0139098
0.0138308
0.0137492
0.0136676
0.0135835
0.0134994
0.0134127
0.0133261
0.013237
0.0131478
0.0130562
0.0129645
0.0128705
0.0127764
0.0126799
0.0125834
0.0124846
0.0123857
0.0122846
0.0121834
0.0120802
0.0119766
0.0118713
0.0117657
0.0116584
0.0115506
0.0114415
0.0113318
0.0112208
0.0111093
0.0109968
0.0108836
0.0107695
0.0106548
0.0105394
0.0104233
0.0103067
0.0101895
0.0100718
0.00995361
0.00983501
0.00971604
0.00959674
0.00947716
0.00935735
0.00923734
0.0091172
0.00899696
0.00887668
0.00875641
0.00863619
0.00851607
0.00839609
0.00827632
0.00815679
0.00803756
0.00791866
0.00780016
0.00768207
0.00756448
0.00744738
0.00733088
0.00721496
0.00709971
0.00698512
0.00687128
0.00675817
0.00664588
0.00653438
0.00642366
0.00631379
0.00620482
0.0060968
0.00598977
0.00588378
0.00577889
0.00567515
0.00557257
0.00547119
0.00537103
0.00527209
0.00517439
0.00507795
0.00498277
0.00488885
0.00479621
0.00470485
0.00461479
0.00452603
0.00443858
0.00435244
0.00426761
0.0041841
0.00410191
0.00402104
0.00394149
0.00386326
0.00378634
0.00371074
0.00363645
0.00356347
0.00349179
0.0034214
0.00335229
0.00328447
0.00321791
0.00315261
0.00308855
0.00302574
0.00296414
0.00290377
0.00284458
0.0027866
0.00272976
0.00267411
0.00261956
0.00256618
0.00251388
0.00246267
0.00241258
0.00236344
0.00231553
0.00226833
0.00222255
0.00217714
0.00213343
0.00208963
0.00204779
0.00200557
0.00196468
0.00190595
0.0183283
0.0185847
0.0189665
0.0193066
0.0196518
0.0199462
0.0201932
0.0203995
0.0205698
0.020709
0.0208223
0.0209146
0.0209894
0.0210503
0.0210994
0.0211392
0.0211711
0.0211966
0.0212168
0.0212326
0.0212449
0.021254
0.0212607
0.0212655
0.0212687
0.0212708
0.0212715
0.0212713
0.0212709
0.0212693
0.021268
0.0212654
0.0212633
0.0212599
0.021257
0.0212529
0.0212492
0.0212441
0.0212396
0.0212336
0.021228
0.0212209
0.0212144
0.0212061
0.0211984
0.0211888
0.0211798
0.0211688
0.0211585
0.021146
0.0211343
0.0211204
0.0211073
0.021092
0.0210776
0.0210609
0.0210451
0.0210272
0.02101
0.0209908
0.0209723
0.0209519
0.0209321
0.0209105
0.0208895
0.0208667
0.0208445
0.0208207
0.0207974
0.0207726
0.0207482
0.0207225
0.0206971
0.0206705
0.0206441
0.0206167
0.0205895
0.0205613
0.0205333
0.0205044
0.0204756
0.020446
0.0204165
0.0203862
0.020356
0.0203252
0.0202943
0.0202628
0.0202313
0.0201992
0.0201671
0.0201344
0.0201017
0.0200684
0.0200351
0.0200013
0.0199673
0.0199329
0.0198983
0.0198632
0.019828
0.0197923
0.0197565
0.0197201
0.0196836
0.0196464
0.0196092
0.0195713
0.0195334
0.0194947
0.019456
0.0194164
0.0193769
0.0193364
0.019296
0.0192546
0.0192132
0.0191708
0.0191284
0.0190849
0.0190415
0.0189968
0.0189523
0.0189065
0.0188607
0.0188137
0.0187667
0.0187183
0.0186699
0.0186201
0.0185704
0.0185191
0.0184679
0.0184151
0.0183624
0.0183079
0.0182535
0.0181973
0.0181413
0.0180833
0.0180255
0.0179656
0.0179059
0.0178441
0.0177825
0.0177186
0.017655
0.017589
0.0175233
0.0174551
0.0173872
0.0173168
0.0172466
0.0171739
0.0171013
0.0170263
0.0169513
0.0168738
0.0167963
0.0167163
0.0166363
0.0165537
0.0164712
0.016386
0.0163008
0.0162129
0.0161251
0.0160345
0.0159439
0.0158507
0.0157574
0.0156614
0.0155653
0.0154667
0.0153678
0.0152664
0.0151648
0.0150607
0.0149564
0.0148496
0.0147425
0.0146331
0.0145234
0.0144114
0.014299
0.0141845
0.0140695
0.0139525
0.0138351
0.0137158
0.0135959
0.0134743
0.0133521
0.0132284
0.013104
0.0129783
0.0128519
0.0127242
0.0125959
0.0124665
0.0123363
0.0122054
0.0120736
0.0119412
0.0118081
0.0116744
0.0115401
0.0114053
0.01127
0.0111343
0.0109982
0.0108618
0.0107251
0.0105882
0.0104512
0.010314
0.0101767
0.0100395
0.00990232
0.00976523
0.0096283
0.00949158
0.00935512
0.00921898
0.00908321
0.00894786
0.00881299
0.00867863
0.00854486
0.0084117
0.00827923
0.00814746
0.00801647
0.00788627
0.00775694
0.00762847
0.00750095
0.00737437
0.00724872
0.00712404
0.0070004
0.00687786
0.00675645
0.00663623
0.00651723
0.00639951
0.0062831
0.00616803
0.00605432
0.00594201
0.00583108
0.00572159
0.00561353
0.00550691
0.00540174
0.00529805
0.00519582
0.00509508
0.00499584
0.00489808
0.00480183
0.00470708
0.00461384
0.0045221
0.00443187
0.00434315
0.00425592
0.0041702
0.00408597
0.00400323
0.00392196
0.00384218
0.00376385
0.00368698
0.00361155
0.00353756
0.00346499
0.00339382
0.00332404
0.00325565
0.00318861
0.00312294
0.00305858
0.00299555
0.0029338
0.00287335
0.00281415
0.00275618
0.00269947
0.00264388
0.00258961
0.00253627
0.00248438
0.00243314
0.00238353
0.00233422
0.00228667
0.0022393
0.00219275
0.00212785
0.0224196
0.0226885
0.0230132
0.0233129
0.0235853
0.0238138
0.0240033
0.0241602
0.0242895
0.0243959
0.0244833
0.0245553
0.0246141
0.0246621
0.0247008
0.0247316
0.0247553
0.0247733
0.0247859
0.024794
0.0247983
0.024798
0.024796
0.0247906
0.0247846
0.0247741
0.0247646
0.0247511
0.0247386
0.0247228
0.0247079
0.0246903
0.0246736
0.0246546
0.0246363
0.0246162
0.0245967
0.0245757
0.0245551
0.0245331
0.0245116
0.0244889
0.0244665
0.0244429
0.0244198
0.0243954
0.0243714
0.0243461
0.0243212
0.0242951
0.0242694
0.0242423
0.0242156
0.0241877
0.0241601
0.0241313
0.0241028
0.024073
0.0240436
0.0240129
0.0239826
0.0239511
0.0239198
0.0238874
0.0238552
0.0238219
0.0237888
0.0237546
0.0237206
0.0236856
0.0236508
0.0236149
0.0235792
0.0235426
0.0235061
0.0234687
0.0234314
0.0233932
0.0233551
0.0233162
0.0232773
0.0232378
0.0231982
0.0231579
0.0231176
0.0230767
0.0230357
0.0229941
0.0229524
0.0229102
0.0228679
0.022825
0.022782
0.0227385
0.0226948
0.0226506
0.0226062
0.0225614
0.0225163
0.0224708
0.022425
0.0223787
0.0223323
0.0222852
0.022238
0.0221902
0.0221421
0.0220935
0.0220446
0.0219951
0.0219454
0.0218949
0.0218443
0.0217928
0.0217412
0.0216887
0.0216361
0.0215825
0.0215288
0.0214741
0.0214192
0.0213633
0.0213072
0.02125
0.0211926
0.021134
0.0210753
0.0210153
0.0209551
0.0208936
0.020832
0.0207688
0.0207056
0.0206408
0.020576
0.0205094
0.0204428
0.0203744
0.020306
0.0202357
0.0201654
0.0200931
0.0200208
0.0199464
0.019872
0.0197955
0.0197189
0.0196402
0.0195613
0.0194803
0.0193991
0.0193157
0.0192321
0.0191462
0.0190602
0.0189717
0.0188831
0.0187921
0.0187009
0.0186072
0.0185134
0.018417
0.0183204
0.0182212
0.0181218
0.0180199
0.0179177
0.0178129
0.0177079
0.0176003
0.0174923
0.0173819
0.0172711
0.0171578
0.017044
0.0169279
0.0168113
0.0166923
0.0165728
0.0164511
0.0163288
0.0162042
0.0160792
0.0159519
0.0158241
0.0156943
0.0155638
0.0154314
0.0152984
0.0151635
0.015028
0.0148908
0.0147529
0.0146135
0.0144734
0.0143319
0.0141897
0.0140463
0.0139021
0.013757
0.013611
0.0134642
0.0133167
0.0131684
0.0130196
0.0128701
0.01272
0.0125694
0.0124184
0.012267
0.0121153
0.0119632
0.0118109
0.0116585
0.0115059
0.0113533
0.0112007
0.0110481
0.0108957
0.0107434
0.0105913
0.0104396
0.0102882
0.0101371
0.00998658
0.00983654
0.00968707
0.00953823
0.00939007
0.00924264
0.009096
0.00895018
0.00880527
0.00866127
0.00851825
0.00837625
0.00823531
0.00809545
0.00795667
0.00781899
0.00768249
0.00754723
0.00741325
0.00728059
0.0071493
0.00701943
0.00689101
0.00676407
0.00663865
0.00651476
0.00639242
0.00627166
0.00615249
0.00603492
0.00591897
0.00580465
0.00569196
0.00558093
0.00547155
0.00536383
0.00525777
0.00515338
0.00505067
0.00494962
0.00485024
0.00475253
0.00465649
0.0045621
0.00446937
0.00437829
0.00428884
0.00420103
0.00411483
0.00403025
0.00394725
0.00386585
0.00378601
0.00370773
0.00363098
0.00355576
0.00348204
0.00340982
0.00333906
0.00326976
0.00320188
0.00313543
0.00307036
0.00300665
0.00294432
0.00288325
0.00282359
0.00276502
0.00270795
0.00265176
0.00259715
0.00254316
0.00249076
0.00243903
0.00238764
0.00231773
0.0265234
0.0267682
0.0270386
0.0272874
0.0275023
0.0276788
0.0278223
0.0279387
0.0280323
0.0281075
0.0281673
0.0282149
0.0282521
0.0282812
0.0283026
0.0283179
0.0283279
0.0283331
0.028333
0.0283298
0.0283245
0.0283136
0.0283029
0.0282861
0.0282708
0.0282498
0.0282303
0.028206
0.0281829
0.0281558
0.0281297
0.0281002
0.0280715
0.02804
0.0280092
0.0279761
0.0279435
0.0279089
0.0278748
0.027839
0.0278036
0.0277668
0.0277302
0.0276924
0.0276549
0.0276162
0.0275778
0.0275383
0.027499
0.0274588
0.0274187
0.0273777
0.0273368
0.0272951
0.0272535
0.027211
0.0271687
0.0271255
0.0270824
0.0270386
0.0269948
0.0269502
0.0269056
0.0268604
0.0268151
0.0267691
0.0267231
0.0266765
0.0266298
0.0265824
0.026535
0.026487
0.0264389
0.0263902
0.0263414
0.026292
0.0262425
0.0261925
0.0261423
0.0260916
0.0260407
0.0259894
0.0259379
0.0258859
0.0258337
0.0257811
0.0257282
0.025675
0.0256215
0.0255676
0.0255134
0.0254589
0.025404
0.0253488
0.0252933
0.0252374
0.0251812
0.0251245
0.0250676
0.0250103
0.0249526
0.0248945
0.0248361
0.0247772
0.024718
0.0246583
0.0245982
0.0245376
0.0244767
0.0244152
0.0243534
0.0242908
0.024228
0.0241645
0.0241007
0.024036
0.0239712
0.0239054
0.0238393
0.0237723
0.023705
0.0236367
0.0235682
0.0234985
0.0234287
0.0233576
0.0232862
0.0232136
0.0231408
0.0230666
0.0229922
0.0229164
0.0228403
0.0227627
0.0226849
0.0226054
0.0225258
0.0224444
0.0223628
0.0222794
0.0221959
0.0221104
0.0220247
0.0219371
0.0218492
0.0217594
0.0216692
0.021577
0.0214846
0.0213899
0.021295
0.0211979
0.0211005
0.0210009
0.0209009
0.0207986
0.0206959
0.0205909
0.0204856
0.0203778
0.0202697
0.0201592
0.0200482
0.0199348
0.019821
0.0197047
0.0195879
0.0194688
0.0193491
0.019227
0.0191043
0.0189793
0.0188536
0.0187257
0.0185971
0.0184662
0.0183346
0.0182008
0.0180663
0.0179297
0.0177923
0.0176528
0.0175126
0.0173704
0.0172274
0.0170825
0.0169369
0.0167894
0.0166411
0.0164912
0.0163404
0.0161881
0.016035
0.0158805
0.0157251
0.0155685
0.0154111
0.0152526
0.0150932
0.0149329
0.0147718
0.01461
0.0144474
0.0142841
0.0141202
0.0139558
0.0137908
0.0136253
0.0134595
0.0132933
0.0131268
0.01296
0.0127931
0.0126261
0.0124591
0.012292
0.012125
0.0119581
0.0117915
0.0116251
0.011459
0.0112932
0.011128
0.0109632
0.0107989
0.0106353
0.0104724
0.0103102
0.0101488
0.00998824
0.00982859
0.00966988
0.00951219
0.00935554
0.00920001
0.00904561
0.00889241
0.00874042
0.00858966
0.00844014
0.00829194
0.00814511
0.0079997
0.00785575
0.00771332
0.00757245
0.00743316
0.0072955
0.00715949
0.00702517
0.00689253
0.00676164
0.00663247
0.00650505
0.00637941
0.00625555
0.00613348
0.00601321
0.00589474
0.00577809
0.00566325
0.00555024
0.00543904
0.00532967
0.00522211
0.00511637
0.00501244
0.00491032
0.00481
0.00471148
0.00461473
0.00451976
0.00442655
0.00433508
0.00424535
0.00415734
0.00407103
0.00398642
0.00390347
0.00382218
0.00374251
0.00366447
0.00358802
0.00351315
0.00343982
0.00336803
0.00329775
0.00322894
0.00316162
0.00309569
0.00303124
0.00296805
0.00290639
0.00284579
0.00278676
0.00272861
0.00267192
0.00261629
0.0025606
0.00248643
0.0305506
0.0307611
0.030982
0.0311805
0.0313482
0.0314823
0.0315872
0.0316683
0.0317293
0.0317744
0.0318065
0.0318282
0.0318421
0.0318497
0.0318501
0.0318469
0.0318407
0.0318289
0.0318166
0.0317975
0.0317799
0.0317557
0.0317334
0.0317049
0.0316782
0.0316461
0.0316155
0.0315802
0.0315461
0.031508
0.0314709
0.0314303
0.0313905
0.0313477
0.0313055
0.0312608
0.0312166
0.0311702
0.0311241
0.0310762
0.0310285
0.0309793
0.0309303
0.0308799
0.0308296
0.0307782
0.0307268
0.0306744
0.030622
0.0305688
0.0305155
0.0304614
0.0304073
0.0303525
0.0302975
0.030242
0.0301863
0.0301301
0.0300737
0.0300168
0.0299598
0.0299022
0.0298445
0.0297863
0.0297279
0.0296691
0.0296101
0.0295507
0.029491
0.029431
0.0293707
0.0293101
0.0292492
0.029188
0.0291265
0.0290646
0.0290025
0.0289401
0.0288773
0.0288143
0.028751
0.0286873
0.0286233
0.0285591
0.0284945
0.0284296
0.0283644
0.0282989
0.0282331
0.0281669
0.0281004
0.0280336
0.0279665
0.027899
0.0278312
0.027763
0.0276945
0.0276256
0.0275563
0.0274867
0.0274167
0.0273462
0.0272754
0.0272042
0.0271325
0.0270604
0.0269879
0.0269149
0.0268414
0.0267674
0.0266931
0.026618
0.0265426
0.0264665
0.0263901
0.0263128
0.0262352
0.0261567
0.0260779
0.0259982
0.0259181
0.025837
0.0257556
0.0256731
0.0255902
0.0255062
0.0254218
0.0253362
0.0252503
0.0251631
0.0250755
0.0249865
0.0248971
0.0248063
0.0247151
0.0246224
0.0245293
0.0244345
0.0243395
0.0242426
0.0241455
0.0240465
0.0239471
0.0238459
0.0237442
0.0236407
0.0235367
0.0234307
0.0233243
0.0232158
0.0231069
0.0229958
0.0228843
0.0227706
0.0226564
0.02254
0.0224231
0.0223039
0.0221842
0.0220622
0.0219397
0.0218148
0.0216893
0.0215616
0.0214331
0.0213024
0.021171
0.0210373
0.0209029
0.0207663
0.0206288
0.0204892
0.0203487
0.0202061
0.0200627
0.0199171
0.0197706
0.0196221
0.0194727
0.0193213
0.0191689
0.0190147
0.0188595
0.0187025
0.0185446
0.0183849
0.0182242
0.018062
0.0178987
0.017734
0.0175683
0.0174013
0.0172332
0.017064
0.0168937
0.0167224
0.0165502
0.016377
0.0162029
0.016028
0.0158523
0.0156759
0.0154988
0.015321
0.0151427
0.0149639
0.0147845
0.0146048
0.0144247
0.0142444
0.0140638
0.013883
0.0137021
0.0135212
0.0133404
0.0131596
0.0129789
0.0127985
0.0126184
0.0124386
0.0122592
0.0120803
0.0119019
0.0117241
0.011547
0.0113706
0.011195
0.0110203
0.0108464
0.0106735
0.0105017
0.0103309
0.0101612
0.00999277
0.00982553
0.00965956
0.0094949
0.00933161
0.00916967
0.00900913
0.00885004
0.00869245
0.00853642
0.008382
0.00822923
0.00807815
0.0079288
0.00778122
0.00763543
0.00749146
0.00734933
0.00720908
0.0070707
0.00693421
0.00679965
0.006667
0.00653629
0.00640753
0.00628072
0.00615586
0.00603296
0.00591203
0.00579305
0.00567604
0.00556099
0.00544789
0.00533675
0.00522755
0.00512028
0.00501494
0.00491152
0.00481
0.00471037
0.00461262
0.00451673
0.00442269
0.00433047
0.00424007
0.00415146
0.00406463
0.00397954
0.00389619
0.00381454
0.00373459
0.0036563
0.00357965
0.00350461
0.00343116
0.00335929
0.00328892
0.00322013
0.00315271
0.00308687
0.00302225
0.00295922
0.00289725
0.00283669
0.00277745
0.00271786
0.00263999
0.0344217
0.0345962
0.0347711
0.0349246
0.0350509
0.035148
0.0352193
0.0352693
0.0353006
0.035318
0.0353234
0.0353204
0.0353128
0.0352978
0.0352813
0.0352568
0.0352338
0.0352042
0.0351763
0.0351423
0.0351101
0.0350727
0.0350368
0.0349962
0.0349569
0.0349134
0.034871
0.0348248
0.0347796
0.0347309
0.034683
0.034632
0.0345816
0.0345286
0.0344759
0.0344209
0.0343661
0.0343094
0.0342528
0.0341943
0.034136
0.0340761
0.0340163
0.033955
0.0338938
0.0338313
0.0337687
0.0337052
0.0336415
0.0335769
0.0335121
0.0334465
0.0333808
0.0333143
0.0332477
0.0331804
0.0331129
0.0330449
0.0329766
0.0329079
0.0328388
0.0327694
0.0326996
0.0326295
0.032559
0.0324883
0.0324172
0.0323458
0.032274
0.032202
0.0321297
0.032057
0.0319841
0.0319108
0.0318372
0.0317634
0.0316892
0.0316147
0.03154
0.0314649
0.0313896
0.0313139
0.0312379
0.0311616
0.031085
0.0310081
0.0309309
0.0308533
0.0307754
0.0306972
0.0306187
0.0305398
0.0304606
0.030381
0.0303011
0.0302208
0.0301401
0.030059
0.0299776
0.0298958
0.0298135
0.0297309
0.0296478
0.0295643
0.0294803
0.0293959
0.029311
0.0292256
0.0291397
0.0290533
0.0289664
0.0288789
0.0287909
0.0287023
0.0286132
0.0285233
0.028433
0.0283419
0.0282503
0.0281578
0.0280649
0.027971
0.0278766
0.0277812
0.0276854
0.0275884
0.027491
0.0273923
0.0272932
0.0271929
0.027092
0.0269898
0.0268872
0.0267831
0.0266785
0.0265724
0.0264658
0.0263576
0.026249
0.0261386
0.0260278
0.0259152
0.0258021
0.0256872
0.0255717
0.0254544
0.0253365
0.0252166
0.0250962
0.0249738
0.0248508
0.0247258
0.0246001
0.0244723
0.0243439
0.0242134
0.0240821
0.0239488
0.0238147
0.0236784
0.0235414
0.0234022
0.0232622
0.0231201
0.0229771
0.0228319
0.0226859
0.0225378
0.0223887
0.0222375
0.0220854
0.0219312
0.021776
0.0216188
0.0214606
0.0213004
0.0211392
0.020976
0.0208118
0.0206458
0.0204787
0.0203099
0.0201399
0.0199683
0.0197956
0.0196213
0.0194459
0.0192691
0.0190912
0.0189119
0.0187316
0.01855
0.0183674
0.0181837
0.017999
0.0178133
0.0176266
0.0174391
0.0172507
0.0170615
0.0168716
0.016681
0.0164898
0.016298
0.0161057
0.0159129
0.0157197
0.0155261
0.0153323
0.0151383
0.0149441
0.0147498
0.0145555
0.0143612
0.0141671
0.0139731
0.0137794
0.013586
0.0133929
0.0132003
0.0130082
0.0128167
0.0126258
0.0124356
0.0122462
0.0120577
0.01187
0.0116833
0.0114977
0.0113131
0.0111296
0.0109474
0.0107664
0.0105867
0.0104084
0.0102315
0.010056
0.00988199
0.0097095
0.00953855
0.00936919
0.00920146
0.00903543
0.00887115
0.00870865
0.00854799
0.00838919
0.00823229
0.00807733
0.00792432
0.00777329
0.00762428
0.00747727
0.0073323
0.00718939
0.00704854
0.00690977
0.00677307
0.00663847
0.00650596
0.00637554
0.00624723
0.00612101
0.00599688
0.00587485
0.00575491
0.00563705
0.00552126
0.00540753
0.00529586
0.00518623
0.00507863
0.00497304
0.00486945
0.00476784
0.0046682
0.0045705
0.00447474
0.00438087
0.0042889
0.00419878
0.00411051
0.00402405
0.00393939
0.00385649
0.00377534
0.0036959
0.00361814
0.00354207
0.00346759
0.00339476
0.00332343
0.00325373
0.00318539
0.00311865
0.00305313
0.00298901
0.00292639
0.00286323
0.00278206
0.0380582
0.0381981
0.0383315
0.0384456
0.038536
0.0386012
0.0386434
0.0386659
0.0386698
0.0386634
0.0386492
0.0386245
0.0385978
0.038561
0.0385265
0.0384844
0.0384443
0.038399
0.0383551
0.0383072
0.0382605
0.0382104
0.0381612
0.038109
0.0380576
0.0380033
0.0379497
0.0378935
0.0378377
0.0377795
0.0377217
0.0376615
0.0376016
0.0375396
0.0374777
0.0374139
0.0373501
0.0372846
0.037219
0.0371519
0.0370846
0.0370159
0.0369471
0.0368769
0.0368066
0.0367351
0.0366634
0.0365906
0.0365176
0.0364437
0.0363694
0.0362944
0.036219
0.036143
0.0360666
0.0359895
0.0359121
0.0358342
0.0357559
0.0356771
0.0355979
0.0355182
0.0354382
0.0353578
0.035277
0.0351958
0.0351143
0.0350323
0.0349501
0.0348674
0.0347845
0.0347011
0.0346175
0.0345335
0.0344492
0.0343645
0.0342795
0.0341942
0.0341085
0.0340225
0.0339362
0.0338495
0.0337625
0.0336752
0.0335875
0.0334995
0.0334112
0.0333224
0.0332334
0.033144
0.0330542
0.032964
0.0328735
0.0327825
0.0326912
0.0325995
0.0325074
0.0324149
0.0323219
0.0322285
0.0321347
0.0320404
0.0319457
0.0318504
0.0317547
0.0316585
0.0315618
0.0314645
0.0313667
0.0312684
0.0311694
0.0310699
0.0309698
0.0308691
0.0307678
0.0306657
0.0305631
0.0304597
0.0303557
0.0302508
0.0301454
0.030039
0.029932
0.0298241
0.0297155
0.0296059
0.0294957
0.0293843
0.0292723
0.0291591
0.0290452
0.0289301
0.0288143
0.0286972
0.0285794
0.0284601
0.0283403
0.0282189
0.0280968
0.0279731
0.0278488