/*--------------------------------*- C++ -*----------------------------------*\
| =========                 |                                                 |
| \\      /  F ield         | OpenFOAM: The Open Source CFD Toolbox           |
|  \\    /   O peration     | Version:  v2012                                 |
|   \\  /    A nd           | Website:  www.openfoam.com                      |
|    \\/     M anipulation  |                                                 |
\*---------------------------------------------------------------------------*/
FoamFile
{
    version     2.0;
    format      ascii;
    class       volScalarField;
    location    "4000";
    object      nut;
}
// * * * * * * * * * * * * * * * * * * * * * * * * * * * * * * * * * * * * * //

dimensions      [0 2 -1 0 0 0 0];


internalField   nonuniform List<scalar> 
23800
(
3.09205e-06
2.69441e-06
3.51794e-06
3.61592e-06
3.54187e-06
3.56269e-06
3.53243e-06
3.53221e-06
3.50605e-06
3.49317e-06
3.48028e-06
3.47191e-06
3.4662e-06
3.46477e-06
3.46654e-06
3.46651e-06
3.47732e-06
3.47616e-06
3.49083e-06
3.49324e-06
3.50623e-06
3.51213e-06
3.52288e-06
3.53124e-06
3.54037e-06
3.54925e-06
3.55774e-06
3.56598e-06
3.57373e-06
3.58113e-06
3.588e-06
3.59447e-06
3.60038e-06
3.60588e-06
3.61082e-06
3.61534e-06
3.61931e-06
3.62291e-06
3.62593e-06
3.62867e-06
3.63082e-06
3.6327e-06
3.63407e-06
3.63516e-06
3.6358e-06
3.63618e-06
3.63597e-06
3.63617e-06
3.63441e-06
3.63508e-06
3.63218e-06
3.63255e-06
3.62917e-06
3.62934e-06
3.62539e-06
3.62537e-06
3.62088e-06
3.6206e-06
3.61566e-06
3.61504e-06
3.60976e-06
3.60873e-06
3.60331e-06
3.60179e-06
3.596e-06
3.5942e-06
3.58822e-06
3.58607e-06
3.57996e-06
3.57744e-06
3.57125e-06
3.56837e-06
3.56213e-06
3.55893e-06
3.55266e-06
3.54916e-06
3.54286e-06
3.53909e-06
3.53277e-06
3.52875e-06
3.52241e-06
3.51817e-06
3.5118e-06
3.50737e-06
3.50096e-06
3.49635e-06
3.48989e-06
3.48513e-06
3.47862e-06
3.47371e-06
3.46713e-06
3.46209e-06
3.45544e-06
3.45027e-06
3.44355e-06
3.43825e-06
3.43144e-06
3.42602e-06
3.41913e-06
3.41359e-06
3.40661e-06
3.40096e-06
3.39387e-06
3.3881e-06
3.38091e-06
3.37503e-06
3.36772e-06
3.36173e-06
3.35431e-06
3.3482e-06
3.34068e-06
3.3344e-06
3.32687e-06
3.32039e-06
3.31272e-06
3.30614e-06
3.29833e-06
3.29163e-06
3.2837e-06
3.27687e-06
3.26881e-06
3.26184e-06
3.25367e-06
3.24655e-06
3.23825e-06
3.23098e-06
3.22256e-06
3.21513e-06
3.20659e-06
3.19899e-06
3.19033e-06
3.18257e-06
3.17378e-06
3.16584e-06
3.15693e-06
3.14881e-06
3.13977e-06
3.13147e-06
3.1223e-06
3.1138e-06
3.10452e-06
3.09581e-06
3.0864e-06
3.07749e-06
3.06795e-06
3.05883e-06
3.04916e-06
3.03982e-06
3.03002e-06
3.02045e-06
3.01053e-06
3.00073e-06
2.99067e-06
2.98063e-06
2.97043e-06
2.96017e-06
2.94979e-06
2.93933e-06
2.92877e-06
2.9181e-06
2.90736e-06
2.89649e-06
2.88555e-06
2.87447e-06
2.86333e-06
2.85205e-06
2.8407e-06
2.82922e-06
2.81766e-06
2.80597e-06
2.79421e-06
2.7823e-06
2.77033e-06
2.75822e-06
2.74603e-06
2.73371e-06
2.72131e-06
2.70878e-06
2.69617e-06
2.68343e-06
2.67061e-06
2.65766e-06
2.64463e-06
2.63147e-06
2.61823e-06
2.60487e-06
2.59143e-06
2.57786e-06
2.56422e-06
2.55046e-06
2.53662e-06
2.52266e-06
2.50863e-06
2.49449e-06
2.48026e-06
2.46594e-06
2.45154e-06
2.43704e-06
2.42246e-06
2.40779e-06
2.39305e-06
2.37822e-06
2.36332e-06
2.34834e-06
2.33329e-06
2.31817e-06
2.30298e-06
2.28773e-06
2.27242e-06
2.25705e-06
2.24162e-06
2.22615e-06
2.21062e-06
2.19505e-06
2.17943e-06
2.16378e-06
2.14809e-06
2.13236e-06
2.11661e-06
2.10083e-06
2.08503e-06
2.06921e-06
2.05338e-06
2.03753e-06
2.02168e-06
2.00582e-06
1.98997e-06
1.97411e-06
1.95826e-06
1.94243e-06
1.9266e-06
1.9108e-06
1.89501e-06
1.87926e-06
1.86351e-06
1.84784e-06
1.83206e-06
1.81635e-06
1.80175e-06
1.78871e-06
1.77535e-06
1.7623e-06
1.74901e-06
1.73576e-06
1.7225e-06
1.70926e-06
1.69605e-06
1.68288e-06
1.66974e-06
1.65665e-06
1.64361e-06
1.63061e-06
1.61768e-06
1.6048e-06
1.59197e-06
1.57921e-06
1.56652e-06
1.55389e-06
1.54134e-06
1.52885e-06
1.51645e-06
1.50412e-06
1.49188e-06
1.47972e-06
1.46764e-06
1.45565e-06
1.44375e-06
1.43195e-06
1.42023e-06
1.40861e-06
1.39709e-06
1.38566e-06
1.37433e-06
1.3631e-06
1.35197e-06
1.34094e-06
1.33002e-06
1.3192e-06
1.30848e-06
1.29787e-06
1.28736e-06
1.27696e-06
1.26666e-06
1.25647e-06
1.24639e-06
1.2364e-06
1.22654e-06
1.21674e-06
1.20711e-06
1.19748e-06
1.18809e-06
1.17861e-06
1.16942e-06
1.16007e-06
1.15104e-06
1.14167e-06
1.13286e-06
1.12295e-06
1.11475e-06
1.09842e-06
4.84598e-06
7.78839e-06
8.87103e-06
9.8798e-06
1.12047e-05
1.21177e-05
1.27143e-05
1.34316e-05
1.41e-05
1.47098e-05
1.52753e-05
1.58113e-05
1.63113e-05
1.67908e-05
1.7236e-05
1.76516e-05
1.80401e-05
1.84023e-05
1.87414e-05
1.90572e-05
1.93508e-05
1.96229e-05
1.9875e-05
2.01088e-05
2.03229e-05
2.05221e-05
2.0701e-05
2.08704e-05
2.1018e-05
2.11607e-05
2.12813e-05
2.14e-05
2.14973e-05
2.15948e-05
2.16723e-05
2.17513e-05
2.1812e-05
2.1875e-05
2.19221e-05
2.19714e-05
2.20071e-05
2.20449e-05
2.20717e-05
2.20996e-05
2.21194e-05
2.2139e-05
2.21539e-05
2.21687e-05
2.21803e-05
2.2191e-05
2.21999e-05
2.22069e-05
2.22091e-05
2.22077e-05
2.22036e-05
2.21964e-05
2.21875e-05
2.21764e-05
2.2164e-05
2.21506e-05
2.21358e-05
2.21213e-05
2.21056e-05
2.20906e-05
2.20751e-05
2.20604e-05
2.20456e-05
2.2032e-05
2.20186e-05
2.20064e-05
2.19947e-05
2.19844e-05
2.19747e-05
2.19664e-05
2.19587e-05
2.19525e-05
2.1947e-05
2.19429e-05
2.19395e-05
2.19375e-05
2.19362e-05
2.19363e-05
2.1937e-05
2.1939e-05
2.19416e-05
2.19455e-05
2.195e-05
2.19555e-05
2.19617e-05
2.19689e-05
2.19767e-05
2.19854e-05
2.19947e-05
2.20048e-05
2.20154e-05
2.20269e-05
2.20388e-05
2.20515e-05
2.20646e-05
2.20784e-05
2.20925e-05
2.21073e-05
2.21224e-05
2.21382e-05
2.21541e-05
2.21707e-05
2.21875e-05
2.22049e-05
2.22224e-05
2.22404e-05
2.22586e-05
2.22774e-05
2.22961e-05
2.23153e-05
2.23345e-05
2.23541e-05
2.23738e-05
2.23936e-05
2.24138e-05
2.24338e-05
2.24543e-05
2.24745e-05
2.24953e-05
2.25154e-05
2.25365e-05
2.25565e-05
2.25776e-05
2.25975e-05
2.26186e-05
2.26382e-05
2.26592e-05
2.26783e-05
2.26991e-05
2.27178e-05
2.27382e-05
2.27562e-05
2.27762e-05
2.27935e-05
2.28129e-05
2.28293e-05
2.2848e-05
2.28634e-05
2.28812e-05
2.28955e-05
2.29123e-05
2.29254e-05
2.29409e-05
2.29526e-05
2.29668e-05
2.2977e-05
2.29897e-05
2.29981e-05
2.30092e-05
2.30158e-05
2.30251e-05
2.30297e-05
2.3037e-05
2.30395e-05
2.30444e-05
2.30448e-05
2.30475e-05
2.30452e-05
2.30454e-05
2.30405e-05
2.3038e-05
2.30303e-05
2.3025e-05
2.30143e-05
2.3006e-05
2.29922e-05
2.29807e-05
2.29637e-05
2.29488e-05
2.29284e-05
2.291e-05
2.2886e-05
2.2864e-05
2.28363e-05
2.28104e-05
2.27791e-05
2.27491e-05
2.27139e-05
2.26799e-05
2.26407e-05
2.26024e-05
2.25591e-05
2.25164e-05
2.24691e-05
2.24219e-05
2.23703e-05
2.23186e-05
2.22627e-05
2.22063e-05
2.21462e-05
2.20849e-05
2.20205e-05
2.19545e-05
2.18857e-05
2.18149e-05
2.17415e-05
2.16661e-05
2.15882e-05
2.15082e-05
2.14258e-05
2.13408e-05
2.1254e-05
2.11648e-05
2.10733e-05
2.09796e-05
2.08838e-05
2.07857e-05
2.06855e-05
2.05832e-05
2.04787e-05
2.03722e-05
2.02636e-05
2.0153e-05
2.00404e-05
1.99258e-05
1.98093e-05
1.96909e-05
1.95706e-05
1.94486e-05
1.93248e-05
1.91992e-05
1.9072e-05
1.89432e-05
1.88126e-05
1.86807e-05
1.85471e-05
1.84123e-05
1.82758e-05
1.81383e-05
1.79991e-05
1.78588e-05
1.7718e-05
1.75727e-05
1.74334e-05
1.7277e-05
1.71018e-05
1.69166e-05
1.67294e-05
1.65409e-05
1.63536e-05
1.61675e-05
1.59828e-05
1.57992e-05
1.56166e-05
1.54348e-05
1.52539e-05
1.50737e-05
1.48942e-05
1.47157e-05
1.45379e-05
1.43608e-05
1.41846e-05
1.40093e-05
1.38348e-05
1.36613e-05
1.34887e-05
1.33171e-05
1.31466e-05
1.29771e-05
1.28087e-05
1.26415e-05
1.24754e-05
1.23105e-05
1.21469e-05
1.19846e-05
1.18236e-05
1.16639e-05
1.15056e-05
1.13486e-05
1.11932e-05
1.10391e-05
1.08866e-05
1.07355e-05
1.0586e-05
1.0438e-05
1.02916e-05
1.01467e-05
1.00036e-05
9.86182e-06
9.72201e-06
9.58342e-06
9.44696e-06
9.31161e-06
9.17842e-06
9.04651e-06
8.91614e-06
8.78829e-06
8.65969e-06
8.53653e-06
8.40891e-06
8.29026e-06
8.1606e-06
8.05174e-06
7.90794e-06
7.81283e-06
7.54047e-06
7.81858e-06
8.821e-06
1.03219e-05
1.25698e-05
1.47838e-05
1.70477e-05
1.91888e-05
2.11925e-05
2.30579e-05
2.47937e-05
2.64188e-05
2.79549e-05
2.94159e-05
3.08184e-05
3.2167e-05
3.34711e-05
3.47312e-05
3.59514e-05
3.71329e-05
3.8277e-05
3.93864e-05
4.04611e-05
4.15004e-05
4.2505e-05
4.34728e-05
4.44063e-05
4.5303e-05
4.61658e-05
4.69923e-05
4.77858e-05
4.85442e-05
4.92713e-05
4.9965e-05
5.06293e-05
5.12623e-05
5.18681e-05
5.2446e-05
5.30008e-05
5.35292e-05
5.40364e-05
5.45184e-05
5.49822e-05
5.54217e-05
5.58381e-05
5.62435e-05
5.66222e-05
5.69982e-05
5.73346e-05
5.76794e-05
5.79852e-05
5.83018e-05
5.85814e-05
5.88722e-05
5.91291e-05
5.93969e-05
5.96341e-05
5.98814e-05
6.01017e-05
6.03311e-05
6.0537e-05
6.07508e-05
6.09452e-05
6.11453e-05
6.13295e-05
6.15183e-05
6.16935e-05
6.18726e-05
6.20408e-05
6.22116e-05
6.23741e-05
6.25379e-05
6.26958e-05
6.28537e-05
6.30077e-05
6.31607e-05
6.33111e-05
6.34602e-05
6.36075e-05
6.37536e-05
6.38982e-05
6.40418e-05
6.4184e-05
6.43254e-05
6.44656e-05
6.46051e-05
6.47434e-05
6.48811e-05
6.50178e-05
6.5154e-05
6.52892e-05
6.5424e-05
6.55579e-05
6.56913e-05
6.58239e-05
6.59562e-05
6.60876e-05
6.62186e-05
6.63488e-05
6.64787e-05
6.66077e-05
6.67364e-05
6.68643e-05
6.69918e-05
6.71183e-05
6.7245e-05
6.737e-05
6.74957e-05
6.76193e-05
6.77442e-05
6.78662e-05
6.79902e-05
6.8111e-05
6.82337e-05
6.83528e-05
6.84746e-05
6.85918e-05
6.87123e-05
6.88277e-05
6.8947e-05
6.90603e-05
6.91782e-05
6.92894e-05
6.94057e-05
6.95145e-05
6.96291e-05
6.97354e-05
6.98479e-05
6.99515e-05
7.00618e-05
7.01623e-05
7.02702e-05
7.03673e-05
7.04724e-05
7.0566e-05
7.06679e-05
7.07576e-05
7.08561e-05
7.09415e-05
7.10362e-05
7.1117e-05
7.12075e-05
7.12833e-05
7.13693e-05
7.14397e-05
7.15206e-05
7.15852e-05
7.16605e-05
7.17189e-05
7.17883e-05
7.184e-05
7.19029e-05
7.19474e-05
7.20035e-05
7.20403e-05
7.2089e-05
7.21176e-05
7.21584e-05
7.21783e-05
7.22105e-05
7.22217e-05
7.2245e-05
7.22466e-05
7.22603e-05
7.22519e-05
7.22556e-05
7.22368e-05
7.223e-05
7.22003e-05
7.21825e-05
7.21415e-05
7.21122e-05
7.20595e-05
7.20183e-05
7.19537e-05
7.19e-05
7.18231e-05
7.17565e-05
7.1667e-05
7.15871e-05
7.14847e-05
7.13913e-05
7.12757e-05
7.11683e-05
7.10395e-05
7.09178e-05
7.07755e-05
7.06392e-05
7.04833e-05
7.03322e-05
7.01627e-05
6.99966e-05
6.98133e-05
6.96322e-05
6.94351e-05
6.92387e-05
6.90281e-05
6.88164e-05
6.85921e-05
6.83652e-05
6.81275e-05
6.78854e-05
6.76343e-05
6.73772e-05
6.71129e-05
6.68407e-05
6.65625e-05
6.62777e-05
6.5986e-05
6.56877e-05
6.53829e-05
6.50716e-05
6.4754e-05
6.44301e-05
6.41001e-05
6.37639e-05
6.34219e-05
6.30739e-05
6.27203e-05
6.2361e-05
6.19963e-05
6.16262e-05
6.12509e-05
6.08705e-05
6.04852e-05
6.00951e-05
5.97004e-05
5.93012e-05
5.88976e-05
5.84898e-05
5.8078e-05
5.76622e-05
5.72428e-05
5.68194e-05
5.63935e-05
5.5962e-05
5.55316e-05
5.50902e-05
5.46552e-05
5.42066e-05
5.37311e-05
5.32308e-05
5.2715e-05
5.21872e-05
5.16525e-05
5.11131e-05
5.05711e-05
5.00275e-05
4.94827e-05
4.89374e-05
4.83918e-05
4.78466e-05
4.73014e-05
4.67576e-05
4.62148e-05
4.56731e-05
4.51329e-05
4.45945e-05
4.4058e-05
4.35237e-05
4.29915e-05
4.24619e-05
4.19347e-05
4.14103e-05
4.08888e-05
4.03702e-05
3.98548e-05
3.93425e-05
3.88337e-05
3.83282e-05
3.78264e-05
3.73282e-05
3.68337e-05
3.63431e-05
3.58565e-05
3.53738e-05
3.48952e-05
3.44208e-05
3.39506e-05
3.34847e-05
3.30232e-05
3.2566e-05
3.21135e-05
3.16651e-05
3.12218e-05
3.07824e-05
3.03484e-05
2.99182e-05
2.94933e-05
2.90727e-05
2.8656e-05
2.82462e-05
2.78352e-05
2.74381e-05
2.70284e-05
2.66466e-05
2.62286e-05
2.58698e-05
2.54309e-05
2.5061e-05
2.43276e-05
4.50545e-05
4.73024e-05
5.13114e-05
5.52738e-05
5.96772e-05
6.37437e-05
6.72881e-05
7.03674e-05
7.30285e-05
7.53339e-05
7.73521e-05
7.9149e-05
8.07672e-05
8.22457e-05
8.36112e-05
8.48938e-05
8.61061e-05
8.72642e-05
8.83781e-05
8.94556e-05
9.05026e-05
9.15238e-05
9.25209e-05
9.34983e-05
9.44546e-05
9.53946e-05
9.63153e-05
9.72194e-05
9.81055e-05
9.89749e-05
9.98298e-05
0.00010067
0.000101493
0.0001023
0.00010309
0.000103863
0.000104613
0.000105343
0.000106053
0.000106744
0.000107416
0.000108071
0.000108708
0.000109329
0.000109933
0.000110524
0.000111097
0.00011165
0.0001122
0.000112718
0.000113247
0.000113739
0.000114246
0.000114715
0.000115201
0.000115649
0.000116114
0.000116542
0.000116987
0.000117397
0.000117823
0.000118217
0.000118626
0.000119006
0.000119399
0.000119765
0.000120144
0.000120499
0.000120864
0.000121208
0.000121561
0.000121896
0.000122238
0.000122564
0.000122897
0.000123215
0.000123538
0.000123849
0.000124164
0.000124468
0.000124775
0.000125073
0.000125373
0.000125665
0.000125957
0.000126243
0.000126529
0.00012681
0.00012709
0.000127365
0.000127639
0.000127908
0.000128177
0.00012844
0.000128703
0.000128961
0.000129219
0.000129471
0.000129723
0.00012997
0.000130216
0.000130457
0.000130698
0.000130933
0.000131169
0.000131398
0.000131629
0.000131852
0.000132077
0.000132294
0.000132515
0.000132726
0.00013294
0.000133145
0.000133354
0.000133552
0.000133756
0.000133947
0.000134145
0.000134329
0.000134521
0.000134698
0.000134883
0.000135053
0.000135231
0.000135393
0.000135564
0.000135718
0.000135882
0.000136027
0.000136183
0.000136319
0.000136466
0.000136592
0.000136731
0.000136847
0.000136976
0.000137082
0.000137201
0.000137295
0.000137404
0.000137486
0.000137583
0.000137652
0.000137738
0.000137794
0.000137867
0.000137908
0.000137968
0.000137995
0.00013804
0.000138052
0.000138082
0.000138077
0.000138092
0.00013807
0.000138069
0.000138028
0.00013801
0.000137952
0.000137914
0.000137837
0.000137781
0.000137685
0.000137608
0.000137491
0.000137394
0.000137257
0.000137138
0.00013698
0.000136839
0.000136659
0.000136495
0.000136292
0.000136106
0.00013588
0.00013567
0.000135421
0.000135187
0.000134915
0.000134656
0.00013436
0.000134075
0.000133756
0.000133446
0.000133102
0.000132767
0.000132399
0.000132038
0.000131647
0.00013126
0.000130844
0.000130431
0.000129992
0.000129554
0.000129091
0.000128627
0.000128142
0.000127651
0.000127144
0.000126628
0.000126099
0.000125558
0.000125007
0.000124442
0.000123868
0.000123283
0.000122687
0.000122081
0.000121464
0.000120837
0.0001202
0.000119553
0.000118897
0.000118231
0.000117556
0.000116872
0.000116179
0.000115478
0.000114768
0.000114051
0.000113326
0.000112593
0.000111853
0.000111107
0.000110353
0.000109593
0.000108827
0.000108055
0.000107278
0.000106495
0.000105707
0.000104914
0.000104118
0.000103314
0.000102511
0.000101696
0.000100883
0.000100063
9.92208e-05
9.83542e-05
9.7466e-05
9.65596e-05
9.56396e-05
9.47091e-05
9.37713e-05
9.2828e-05
9.18807e-05
9.09306e-05
8.99785e-05
8.90258e-05
8.8072e-05
8.71194e-05
8.61677e-05
8.52173e-05
8.42689e-05
8.33229e-05
8.23797e-05
8.14398e-05
8.05033e-05
7.95707e-05
7.86422e-05
7.77181e-05
7.67987e-05
7.58841e-05
7.49746e-05
7.40704e-05
7.31718e-05
7.22788e-05
7.13917e-05
7.05106e-05
6.96357e-05
6.87672e-05
6.79051e-05
6.70496e-05
6.62008e-05
6.53589e-05
6.45238e-05
6.36959e-05
6.2875e-05
6.20614e-05
6.1255e-05
6.04559e-05
5.96645e-05
5.88801e-05
5.81037e-05
5.73342e-05
5.65725e-05
5.58183e-05
5.50701e-05
5.43327e-05
5.35942e-05
5.28763e-05
5.21395e-05
5.14466e-05
5.06947e-05
5.0032e-05
4.92568e-05
4.85436e-05
4.73159e-05
0.000106642
0.000109787
0.000114424
0.000118726
0.000123138
0.000127158
0.000130603
0.000133701
0.000136324
0.000138662
0.000140645
0.000142436
0.000143982
0.000145405
0.000146656
0.00014784
0.000148897
0.000149915
0.000150853
0.000151761
0.000152621
0.000153457
0.000154264
0.000155056
0.00015583
0.000156594
0.000157342
0.000158079
0.000158817
0.000159536
0.000160259
0.00016096
0.000161666
0.000162353
0.000163046
0.000163721
0.000164402
0.000165063
0.000165732
0.000166378
0.000167033
0.000167665
0.000168306
0.000168923
0.000169551
0.000170152
0.000170767
0.000171352
0.000171953
0.000172523
0.000173111
0.000173667
0.000174242
0.000174785
0.000175347
0.000175878
0.000176427
0.000176947
0.000177484
0.000177992
0.000178518
0.000179016
0.00017953
0.000180018
0.000180521
0.000180999
0.000181492
0.000181961
0.000182443
0.000182904
0.000183377
0.00018383
0.000184293
0.000184739
0.000185193
0.000185632
0.000186078
0.000186511
0.00018695
0.000187376
0.000187807
0.000188226
0.00018865
0.000189063
0.000189479
0.000189886
0.000190295
0.000190695
0.000191096
0.000191489
0.000191883
0.000192269
0.000192655
0.000193033
0.000193412
0.000193784
0.000194155
0.000194518
0.000194882
0.000195238
0.000195594
0.000195941
0.000196289
0.000196628
0.000196967
0.000197297
0.000197629
0.000197949
0.000198272
0.000198582
0.000198896
0.000199197
0.000199501
0.000199792
0.000200086
0.000200366
0.00020065
0.000200918
0.000201192
0.000201448
0.000201711
0.000201955
0.000202206
0.000202437
0.000202676
0.000202893
0.000203119
0.000203321
0.000203534
0.000203721
0.00020392
0.000204092
0.000204275
0.00020443
0.000204598
0.000204736
0.000204887
0.000205007
0.000205141
0.000205241
0.000205357
0.000205437
0.000205534
0.000205593
0.000205669
0.000205707
0.000205762
0.000205777
0.000205809
0.0002058
0.000205809
0.000205775
0.00020576
0.0002057
0.00020566
0.000205573
0.000205506
0.000205391
0.000205296
0.000205154
0.000205031
0.000204858
0.000204705
0.000204503
0.000204319
0.000204085
0.00020387
0.000203604
0.000203357
0.000203059
0.000202779
0.000202448
0.000202133
0.000201769
0.000201421
0.000201023
0.000200639
0.000200207
0.000199787
0.000199321
0.000198865
0.000198364
0.000197873
0.000197337
0.000196809
0.000196239
0.000195674
0.00019507
0.000194468
0.00019383
0.000193192
0.000192519
0.000191845
0.00019114
0.00019043
0.000189691
0.000188946
0.000188175
0.000187395
0.000186593
0.000185779
0.000184946
0.000184099
0.000183236
0.000182357
0.000181464
0.000180557
0.000179635
0.000178699
0.00017775
0.000176787
0.000175811
0.000174822
0.000173821
0.000172807
0.000171782
0.000170746
0.000169698
0.00016864
0.000167571
0.000166493
0.000165405
0.000164307
0.000163202
0.000162087
0.000160965
0.000159835
0.000158698
0.000157554
0.000156404
0.000155247
0.000154085
0.000152917
0.000151745
0.000150566
0.000149387
0.000148198
0.000147007
0.00014581
0.000144599
0.000143369
0.000142119
0.000140849
0.000139564
0.000138267
0.000136959
0.000135643
0.000134322
0.000132997
0.000131668
0.000130339
0.000129007
0.000127677
0.000126348
0.000125021
0.000123696
0.000122374
0.000121056
0.000119742
0.000118433
0.00011713
0.000115832
0.00011454
0.000113254
0.000111975
0.000110704
0.000109439
0.000108183
0.000106934
0.000105693
0.00010446
0.000103236
0.000102021
0.000100815
9.96173e-05
9.84291e-05
9.72504e-05
9.6081e-05
9.49213e-05
9.37712e-05
9.2631e-05
9.15007e-05
9.03803e-05
8.927e-05
8.81695e-05
8.70795e-05
8.5999e-05
8.4929e-05
8.38689e-05
8.2817e-05
8.17788e-05
8.07405e-05
7.97271e-05
7.86924e-05
7.77086e-05
7.66592e-05
7.57032e-05
7.46383e-05
7.35923e-05
7.19602e-05
0.000170424
0.000173458
0.000177437
0.000181285
0.000185024
0.000188406
0.000191439
0.000194073
0.000196346
0.000198377
0.00020011
0.000201703
0.00020306
0.000204333
0.000205427
0.000206487
0.000207394
0.000208302
0.000209091
0.000209889
0.000210602
0.000211313
0.00021198
0.000212656
0.00021331
0.000213938
0.000214577
0.000215189
0.000215818
0.000216423
0.000217048
0.000217651
0.000218274
0.000218877
0.000219501
0.000220105
0.000220729
0.000221336
0.000221961
0.000222569
0.000223194
0.000223803
0.000224428
0.000225037
0.00022566
0.000226268
0.000226891
0.000227496
0.000228116
0.000228719
0.000229336
0.000229935
0.000230549
0.000231144
0.000231755
0.000232346
0.000232953
0.000233541
0.000234142
0.000234727
0.000235324
0.000235904
0.000236497
0.000237073
0.000237661
0.000238233
0.000238815
0.000239383
0.00023996
0.000240523
0.000241096
0.000241654
0.000242221
0.000242776
0.000243338
0.000243888
0.000244444
0.000244989
0.00024554
0.000246081
0.000246626
0.000247162
0.000247701
0.000248232
0.000248766
0.000249292
0.00024982
0.000250341
0.000250862
0.000251377
0.000251892
0.0002524
0.000252908
0.000253409
0.00025391
0.000254404
0.000254897
0.000255383
0.000255868
0.000256345
0.000256821
0.000257289
0.000257757
0.000258215
0.000258673
0.00025912
0.000259568
0.000260004
0.00026044
0.000260865
0.00026129
0.000261701
0.000262114
0.000262512
0.000262912
0.000263295
0.000263682
0.00026405
0.000264421
0.000264773
0.000265129
0.000265464
0.000265804
0.000266121
0.000266443
0.000266741
0.000267045
0.000267322
0.000267606
0.000267862
0.000268126
0.00026836
0.000268602
0.000268813
0.000269033
0.000269219
0.000269415
0.000269575
0.000269746
0.000269879
0.000270024
0.000270129
0.000270246
0.000270321
0.00027041
0.000270454
0.000270512
0.000270524
0.00027055
0.000270529
0.000270522
0.000270466
0.000270425
0.000270333
0.000270256
0.000270127
0.000270014
0.000269846
0.000269694
0.000269487
0.000269295
0.000269048
0.000268815
0.000268526
0.000268251
0.00026792
0.000267602
0.000267228
0.000266866
0.000266447
0.000266041
0.000265578
0.000265126
0.000264618
0.000264119
0.000263566
0.000263021
0.000262422
0.000261829
0.000261184
0.000260544
0.000259853
0.000259166
0.000258429
0.000257693
0.000256911
0.000256127
0.000255299
0.000254468
0.000253596
0.000252717
0.000251801
0.000250875
0.000249915
0.000248944
0.000247942
0.000246925
0.000245882
0.000244821
0.000243737
0.000242634
0.00024151
0.000240366
0.000239203
0.00023802
0.00023682
0.000235601
0.000234364
0.00023311
0.000231839
0.000230551
0.000229248
0.000227928
0.000226593
0.000225244
0.00022388
0.000222503
0.000221113
0.000219709
0.000218294
0.000216867
0.000215429
0.00021398
0.00021252
0.000211052
0.000209574
0.000208087
0.000206593
0.000205091
0.000203582
0.000202066
0.000200545
0.000199017
0.000197486
0.000195947
0.000194407
0.000192859
0.000191308
0.000189751
0.000188185
0.000186604
0.000185007
0.000183394
0.000181766
0.000180125
0.000178473
0.000176813
0.000175147
0.000173476
0.000171802
0.000170127
0.000168449
0.000166774
0.0001651
0.000163427
0.000161759
0.000160094
0.000158434
0.00015678
0.000155131
0.00015349
0.000151855
0.000150229
0.00014861
0.000147
0.000145399
0.000143808
0.000142226
0.000140654
0.000139092
0.00013754
0.000136
0.000134471
0.000132952
0.000131445
0.00012995
0.000128467
0.000126995
0.000125535
0.000124088
0.000122653
0.00012123
0.00011982
0.000118422
0.000117036
0.000115664
0.000114303
0.000112955
0.00011162
0.000110295
0.000108986
0.000107678
0.000106398
0.000105098
0.000103849
0.000102538
0.000101311
9.99962e-05
9.86465e-05
9.66924e-05
0.000224387
0.00022709
0.000230314
0.000233524
0.000236546
0.0002394
0.000241987
0.00024425
0.000246335
0.000248125
0.00024984
0.000251299
0.000252689
0.000253914
0.000255068
0.000256116
0.000257098
0.000258036
0.000258871
0.000259706
0.000260492
0.000261237
0.000261975
0.000262657
0.000263361
0.000264017
0.000264698
0.000265338
0.000266003
0.000266634
0.000267289
0.000267915
0.000268565
0.00026919
0.000269839
0.000270464
0.000271115
0.000271743
0.000272396
0.000273029
0.000273684
0.000274323
0.000274979
0.000275624
0.000276283
0.000276932
0.000277595
0.000278248
0.000278914
0.00027957
0.000280238
0.000280897
0.000281567
0.000282229
0.0002829
0.000283564
0.000284237
0.000284902
0.000285576
0.000286242
0.000286917
0.000287584
0.000288259
0.000288926
0.0002896
0.000290267
0.00029094
0.000291607
0.000292279
0.000292945
0.000293616
0.000294281
0.000294951
0.000295615
0.000296282
0.000296944
0.000297609
0.000298269
0.000298932
0.00029959
0.000300249
0.000300904
0.000301561
0.000302213
0.000302865
0.000303514
0.000304162
0.000304807
0.000305451
0.000306091
0.000306729
0.000307364
0.000307997
0.000308625
0.000309252
0.000309873
0.000310492
0.000311106
0.000311718
0.000312323
0.000312926
0.000313522
0.000314116
0.000314701
0.000315284
0.000315859
0.00031643
0.000316992
0.000317552
0.0003181
0.000318646
0.000319179
0.000319711
0.000320229
0.000320746
0.000321246
0.000321746
0.000322228
0.00032271
0.000323172
0.000323635
0.000324077
0.000324519
0.000324938
0.000325359
0.000325754
0.000326153
0.000326526
0.000326903
0.00032725
0.000327601
0.00032792
0.000328244
0.000328533
0.000328828
0.000329086
0.00032935
0.000329576
0.000329807
0.000329998
0.000330196
0.000330351
0.000330512
0.000330629
0.000330754
0.000330831
0.000330916
0.000330953
0.000330997
0.00033099
0.000330992
0.000330941
0.000330898
0.000330802
0.000330713
0.000330569
0.000330433
0.000330239
0.000330054
0.000329811
0.000329575
0.00032928
0.000328992
0.000328644
0.000328302
0.0003279
0.000327503
0.000327047
0.000326595
0.000326083
0.000325575
0.000325007
0.000324441
0.000323816
0.000323192
0.000322509
0.000321827
0.000321087
0.000320345
0.000319547
0.000318746
0.000317891
0.00031703
0.000316117
0.000315197
0.000314227
0.000313247
0.000312221
0.000311183
0.000310101
0.000309004
0.000307867
0.000306713
0.000305523
0.000304313
0.00030307
0.000301805
0.000300511
0.000299192
0.000297848
0.000296478
0.000295085
0.000293667
0.000292226
0.000290761
0.000289275
0.000287766
0.000286236
0.000284685
0.000283113
0.000281522
0.000279912
0.000278283
0.000276636
0.000274972
0.000273291
0.000271593
0.000269881
0.000268154
0.000266412
0.000264657
0.000262889
0.000261109
0.000259318
0.000257515
0.000255703
0.000253881
0.00025205
0.00025021
0.000248363
0.000246509
0.000244649
0.000242782
0.000240911
0.000239034
0.000237154
0.000235268
0.000233378
0.000231482
0.00022958
0.000227667
0.000225742
0.000223803
0.000221852
0.00021989
0.000217918
0.000215938
0.000213952
0.000211962
0.000209968
0.000207975
0.000205979
0.000203986
0.000201994
0.000200006
0.000198022
0.000196043
0.00019407
0.000192104
0.000190145
0.000188194
0.000186252
0.000184319
0.000182397
0.000180484
0.000178583
0.000176692
0.000174814
0.000172947
0.000171093
0.000169251
0.000167422
0.000165607
0.000163805
0.000162016
0.000160242
0.000158481
0.000156735
0.000155003
0.000153286
0.000151583
0.000149895
0.000148222
0.000146564
0.00014492
0.000143292
0.000141678
0.000140079
0.000138495
0.000136923
0.000135369
0.000133819
0.000132298
0.000130759
0.00012927
0.000127727
0.000126253
0.000124716
0.000123094
0.000120884
0.000269692
0.000272132
0.000274895
0.000277602
0.000280233
0.000282727
0.00028497
0.000286949
0.000288931
0.000290582
0.000292259
0.00029368
0.000295099
0.000296372
0.000297578
0.000298712
0.000299821
0.000300835
0.000301852
0.000302757
0.000303701
0.00030454
0.000305422
0.000306213
0.000307047
0.000307805
0.000308603
0.000309338
0.000310109
0.000310828
0.00031158
0.000312288
0.000313029
0.00031373
0.000314464
0.000315163
0.000315892
0.000316592
0.000317319
0.000318023
0.00031875
0.000319459
0.000320188
0.000320903
0.000321634
0.000322355
0.00032309
0.000323817
0.000324556
0.00032529
0.000326033
0.000326772
0.000327521
0.000328265
0.000329018
0.000329768
0.000330524
0.000331279
0.00033204
0.000332799
0.000333563
0.000334327
0.000335095
0.000335862
0.000336633
0.000337403
0.000338176
0.000338949
0.000339724
0.0003405
0.000341277
0.000342054
0.000342832
0.000343611
0.00034439
0.000345169
0.000345949
0.000346729
0.000347509
0.000348288
0.000349068
0.000349847
0.000350625
0.000351403
0.00035218
0.000352955
0.00035373
0.000354503
0.000355275
0.000356045
0.000356813
0.000357578
0.000358342
0.000359103
0.000359861
0.000360616
0.000361368
0.000362116
0.000362861
0.000363601
0.000364337
0.000365068
0.000365795
0.000366516
0.000367232
0.000367941
0.000368645
0.000369341
0.000370033
0.000370714
0.000371391
0.000372056
0.000372718
0.000373366
0.00037401
0.000374639
0.000375264
0.000375872
0.000376477
0.000377062
0.000377645
0.000378206
0.000378765
0.000379301
0.000379834
0.000380342
0.000380848
0.000381325
0.000381801
0.000382247
0.000382692
0.000383104
0.000383516
0.000383894
0.000384271
0.000384611
0.000384951
0.000385252
0.000385553
0.000385812
0.000386072
0.000386288
0.000386505
0.000386676
0.000386847
0.00038697
0.000387094
0.000387168
0.000387242
0.000387265
0.000387288
0.000387256
0.000387226
0.000387139
0.000387053
0.000386909
0.000386766
0.000386563
0.000386361
0.000386098
0.000385834
0.000385509
0.000385183
0.000384798
0.000384411
0.000383961
0.000383509
0.000382994
0.000382474
0.000381892
0.000381304
0.000380654
0.000379997
0.000379279
0.000378552
0.000377765
0.000376968
0.000376112
0.000375244
0.000374318
0.000373379
0.000372384
0.000371374
0.00037031
0.000369229
0.000368097
0.000366945
0.000365745
0.000364524
0.000363257
0.000361966
0.000360633
0.000359275
0.000357878
0.000356453
0.000354994
0.000353505
0.000351984
0.000350433
0.000348851
0.000347241
0.000345602
0.000343933
0.000342239
0.000340515
0.000338767
0.000336992
0.000335192
0.000333367
0.000331519
0.000329648
0.000327754
0.000325839
0.000323902
0.000321946
0.00031997
0.000317976
0.000315964
0.000313935
0.00031189
0.00030983
0.000307755
0.000305666
0.000303565
0.000301451
0.000299325
0.000297189
0.000295044
0.000292889
0.000290726
0.000288555
0.000286377
0.000284193
0.000282005
0.00027981
0.000277611
0.000275408
0.000273201
0.000270988
0.00026877
0.000266544
0.000264309
0.000262065
0.00025981
0.000257546
0.000255273
0.000252995
0.000250711
0.000248423
0.000246134
0.000243844
0.000241553
0.000239267
0.000236982
0.000234702
0.000232427
0.000230158
0.000227896
0.000225642
0.000223397
0.000221162
0.000218937
0.000216723
0.00021452
0.00021233
0.000210152
0.000207987
0.000205836
0.000203699
0.000201576
0.000199468
0.000197375
0.000195297
0.000193235
0.000191188
0.000189158
0.000187144
0.000185147
0.000183166
0.000181202
0.000179255
0.000177325
0.000175412
0.000173516
0.000171637
0.000169775
0.00016793
0.000166103
0.000164292
0.000162496
0.000160719
0.000158949
0.000157208
0.000155455
0.000153746
0.000151994
0.000150297
0.000148555
0.000146693
0.000144278
0.000309275
0.000311561
0.000314039
0.0003165
0.000318908
0.000321055
0.000323145
0.000324934
0.000326842
0.000328388
0.000330011
0.000331402
0.00033286
0.00033415
0.000335473
0.000336647
0.000337869
0.000338966
0.000340103
0.000341128
0.000342193
0.000343162
0.000344168
0.000345091
0.000346051
0.000346937
0.000347859
0.000348718
0.000349611
0.000350449
0.000351318
0.000352141
0.000352992
0.000353805
0.000354644
0.000355451
0.000356282
0.000357085
0.000357911
0.000358714
0.000359537
0.000360343
0.000361166
0.000361975
0.000362799
0.000363613
0.00036444
0.00036526
0.00036609
0.000366916
0.000367752