/*--------------------------------*- C++ -*----------------------------------*\
| =========                 |                                                 |
| \\      /  F ield         | OpenFOAM: The Open Source CFD Toolbox           |
|  \\    /   O peration     | Version:  v2012                                 |
|   \\  /    A nd           | Website:  www.openfoam.com                      |
|    \\/     M anipulation  |                                                 |
\*---------------------------------------------------------------------------*/
FoamFile
{
    version     2.0;
    format      ascii;
    class       volScalarField;
    location    "4000";
    object      p;
}
// * * * * * * * * * * * * * * * * * * * * * * * * * * * * * * * * * * * * * //

dimensions      [0 2 -2 0 0 0 0];


internalField   nonuniform List<scalar> 
23800
(
-0.209296
-0.198288
-0.154636
-0.104142
-0.072193
-0.0641148
-0.0658417
-0.068212
-0.0711891
-0.074835
-0.0784627
-0.0817289
-0.0846345
-0.0872251
-0.0895221
-0.091551
-0.0933443
-0.0949318
-0.0963394
-0.0975897
-0.0987018
-0.099693
-0.100578
-0.101367
-0.102075
-0.102706
-0.103272
-0.103776
-0.104227
-0.104628
-0.104987
-0.105304
-0.105586
-0.105835
-0.106054
-0.106245
-0.106412
-0.106554
-0.106678
-0.106777
-0.106866
-0.106932
-0.106987
-0.107022
-0.107047
-0.107056
-0.107055
-0.10704
-0.107015
-0.106976
-0.106928
-0.106873
-0.106812
-0.106741
-0.10666
-0.10657
-0.106471
-0.106365
-0.106251
-0.10613
-0.106002
-0.105868
-0.105721
-0.10557
-0.105413
-0.105251
-0.105081
-0.104905
-0.104721
-0.104532
-0.104336
-0.104133
-0.103924
-0.103708
-0.103485
-0.103257
-0.103021
-0.10278
-0.102531
-0.102277
-0.102015
-0.101747
-0.101471
-0.10119
-0.100901
-0.100607
-0.100304
-0.099996
-0.09968
-0.0993578
-0.0990279
-0.0986918
-0.0983479
-0.0979976
-0.0976396
-0.0972751
-0.0969027
-0.0965238
-0.096137
-0.0957435
-0.0953422
-0.0949341
-0.094518
-0.0940951
-0.0936642
-0.0932265
-0.0927808
-0.0923282
-0.0918678
-0.0914002
-0.0909251
-0.0904432
-0.0899512
-0.0894525
-0.088947
-0.0884346
-0.0879144
-0.0873868
-0.0868513
-0.0863087
-0.0857584
-0.085201
-0.0846359
-0.0840639
-0.0834842
-0.0828977
-0.0823037
-0.0817029
-0.0810947
-0.08048
-0.0798579
-0.0792294
-0.0785937
-0.0779518
-0.0773029
-0.0766479
-0.0759861
-0.0753185
-0.0746443
-0.0739644
-0.0732782
-0.0725866
-0.071889
-0.0711861
-0.0704777
-0.0697642
-0.0690453
-0.0683218
-0.0675933
-0.0668603
-0.0661227
-0.0653811
-0.0646352
-0.0638855
-0.063132
-0.0623751
-0.0616148
-0.0608517
-0.0600853
-0.0593161
-0.0585447
-0.0577712
-0.0569956
-0.0562181
-0.0554391
-0.0546587
-0.0538773
-0.053095
-0.0523121
-0.0515288
-0.0507454
-0.0499622
-0.0491793
-0.0483971
-0.0476158
-0.0468357
-0.0460569
-0.0452799
-0.0445047
-0.0437318
-0.0429613
-0.0421935
-0.0414286
-0.0406669
-0.0399087
-0.0391542
-0.0384037
-0.0376573
-0.0369154
-0.0361782
-0.0354459
-0.0347188
-0.033997
-0.0332809
-0.0325705
-0.0318662
-0.0311682
-0.0304766
-0.0297917
-0.0291137
-0.0284426
-0.0277789
-0.0271225
-0.0264737
-0.0258327
-0.0251994
-0.0245741
-0.0239572
-0.0233485
-0.0227481
-0.0221563
-0.0215732
-0.0209988
-0.0204332
-0.0198765
-0.0193288
-0.0187901
-0.0182606
-0.0177402
-0.017229
-0.016727
-0.0162343
-0.0157508
-0.0152766
-0.0148117
-0.014356
-0.0139096
-0.0134723
-0.0130443
-0.0126253
-0.0122155
-0.0118146
-0.0114227
-0.0110395
-0.0106651
-0.0102991
-0.00994144
-0.009591
-0.00924892
-0.00891675
-0.00859396
-0.00828043
-0.00797518
-0.00767857
-0.00739015
-0.00710969
-0.00683698
-0.00657191
-0.00631435
-0.00606416
-0.00582123
-0.0055854
-0.00535652
-0.00513454
-0.00491925
-0.00471054
-0.00450827
-0.00431231
-0.00412252
-0.00393878
-0.00376094
-0.00358888
-0.00342247
-0.00326156
-0.00310603
-0.00295574
-0.00281058
-0.0026704
-0.00253508
-0.0024045
-0.00227853
-0.00215705
-0.00203994
-0.00192708
-0.00181834
-0.00171362
-0.0016128
-0.00151577
-0.0014224
-0.00133262
-0.00124626
-0.00116329
-0.00108352
-0.00100694
-0.000933303
-0.000862686
-0.000794747
-0.000729651
-0.000666898
-0.000606824
-0.000548623
-0.000492914
-0.000438363
-0.000386111
-0.000333507
-0.00028461
-0.000228877
-0.000190311
-0.000114498
-0.000133355
-0.221074
-0.206191
-0.158199
-0.108506
-0.0786108
-0.069784
-0.0699877
-0.0713536
-0.0735632
-0.0765862
-0.079764
-0.0827208
-0.0854077
-0.0878392
-0.0900197
-0.0919622
-0.093689
-0.0952243
-0.0965906
-0.0978072
-0.0988922
-0.0998597
-0.100726
-0.101498
-0.102194
-0.102811
-0.103368
-0.103861
-0.104304
-0.104697
-0.105049
-0.10536
-0.105636
-0.10588
-0.106094
-0.106281
-0.106444
-0.106583
-0.1067
-0.106799
-0.106882
-0.10695
-0.106999
-0.107035
-0.107056
-0.107065
-0.10706
-0.107045
-0.107016
-0.106979
-0.106929
-0.106872
-0.106808
-0.106736
-0.106653
-0.106562
-0.106462
-0.106355
-0.10624
-0.106119
-0.10599
-0.105855
-0.105708
-0.105555
-0.105398
-0.105235
-0.105065
-0.104888
-0.104704
-0.104514
-0.104317
-0.104114
-0.103903
-0.103687
-0.103464
-0.103235
-0.102999
-0.102757
-0.102508
-0.102253
-0.101991
-0.101722
-0.101447
-0.101165
-0.100876
-0.100581
-0.100278
-0.0999694
-0.0996532
-0.0993306
-0.0990006
-0.098664
-0.09832
-0.0979693
-0.0976111
-0.0972462
-0.0968737
-0.0964944
-0.0961075
-0.0957137
-0.0953122
-0.0949037
-0.0944876
-0.0940643
-0.0936334
-0.0931953
-0.0927496
-0.0922966
-0.0918361
-0.0913682
-0.0908931
-0.0904108
-0.0899188
-0.0894199
-0.0889143
-0.0884016
-0.0878813
-0.0873535
-0.0868179
-0.0862751
-0.0857246
-0.085167
-0.0846019
-0.0840296
-0.0834499
-0.0828632
-0.0822691
-0.0816681
-0.0810599
-0.0804449
-0.0798228
-0.0791941
-0.0785585
-0.0779163
-0.0772674
-0.0766123
-0.0759505
-0.0752827
-0.0746085
-0.0739284
-0.0732422
-0.0725505
-0.0718529
-0.0711499
-0.0704415
-0.0697279
-0.0690091
-0.0682854
-0.0675569
-0.0668238
-0.0660863
-0.0653446
-0.0645987
-0.063849
-0.0630956
-0.0623386
-0.0615784
-0.0608153
-0.0600489
-0.0592798
-0.0585085
-0.057735
-0.0569594
-0.056182
-0.0554031
-0.0546228
-0.0538414
-0.0530592
-0.0522764
-0.0514933
-0.05071
-0.0499269
-0.0491442
-0.0483621
-0.047581
-0.046801
-0.0460224
-0.0452456
-0.0444706
-0.0436979
-0.0429276
-0.04216
-0.0413953
-0.0406339
-0.0398759
-0.0391217
-0.0383714
-0.0376253
-0.0368836
-0.0361467
-0.0354147
-0.0346878
-0.0339664
-0.0332505
-0.0325405
-0.0318365
-0.0311388
-0.0304476
-0.029763
-0.0290853
-0.0284146
-0.0277512
-0.0270952
-0.0264467
-0.0258061
-0.0251731
-0.0245483
-0.0239317
-0.0233234
-0.0227235
-0.0221321
-0.0215493
-0.0209753
-0.0204101
-0.0198538
-0.0193065
-0.0187682
-0.0182391
-0.0177191
-0.0172083
-0.0167067
-0.0162144
-0.0157313
-0.0152575
-0.014793
-0.0143377
-0.0138917
-0.0134548
-0.0130272
-0.0126086
-0.0121992
-0.0117987
-0.0114071
-0.0110243
-0.0106503
-0.0102846
-0.00992734
-0.00957744
-0.00923585
-0.00890395
-0.00858148
-0.0082681
-0.00796314
-0.00766675
-0.00737857
-0.00709836
-0.00682593
-0.00656113
-0.00630386
-0.00605395
-0.00581131
-0.00557577
-0.00534717
-0.00512547
-0.00491046
-0.00470202
-0.00450001
-0.00430431
-0.00411478
-0.00393129
-0.0037537
-0.00358188
-0.00341569
-0.00325501
-0.0030997
-0.00294964
-0.00280468
-0.00266471
-0.00252959
-0.0023992
-0.00227342
-0.00215212
-0.00203519
-0.0019225
-0.00181392
-0.00170937
-0.0016087
-0.00151182
-0.0014186
-0.00132896
-0.00124274
-0.0011599
-0.00108025
-0.00100379
-0.000930278
-0.000859776
-0.000791946
-0.000726956
-0.000664305
-0.000604326
-0.000546223
-0.000490596
-0.000436135
-0.000383947
-0.000331447
-0.000282539
-0.000227013
-0.000188242
-0.000112508
-0.000132652
-0.1893
-0.176562
-0.14363
-0.11129
-0.0898732
-0.0807419
-0.0782742
-0.0777994
-0.0785548
-0.0803203
-0.0825386
-0.0848092
-0.0869967
-0.0890574
-0.0909624
-0.0926988
-0.0942696
-0.0956852
-0.0969585
-0.0981024
-0.0991311
-0.100052
-0.100883
-0.101621
-0.102295
-0.102893
-0.103435
-0.103915
-0.104348
-0.104732
-0.105075
-0.10538
-0.10565
-0.105889
-0.106098
-0.106282
-0.106439
-0.106576
-0.106689
-0.106786
-0.106865
-0.106929
-0.106977
-0.10701
-0.107029
-0.107035
-0.107028
-0.10701
-0.10698
-0.106941
-0.10689
-0.106832
-0.106766
-0.106692
-0.106608
-0.106516
-0.106416
-0.106308
-0.106192
-0.106069
-0.105939
-0.105802
-0.105655
-0.105502
-0.105344
-0.105179
-0.105008
-0.10483
-0.104645
-0.104454
-0.104256
-0.104052
-0.103842
-0.103624
-0.103401
-0.103171
-0.102934
-0.102691
-0.102441
-0.102185
-0.101923
-0.101653
-0.101377
-0.101095
-0.100805
-0.100509
-0.100206
-0.0998966
-0.0995801
-0.0992566
-0.0989263
-0.0985889
-0.0982446
-0.0978932
-0.0975347
-0.0971691
-0.0967964
-0.0964164
-0.0960292
-0.0956347
-0.095233
-0.0948239
-0.0944075
-0.0939837
-0.0935525
-0.0931138
-0.0926678
-0.0922143
-0.0917535
-0.0912851
-0.0908097
-0.0903268
-0.0898348
-0.0893356
-0.0888296
-0.0883165
-0.0877959
-0.0872677
-0.0867319
-0.0861887
-0.085638
-0.0850801
-0.0845147
-0.0839421
-0.0833622
-0.0827752
-0.0821809
-0.0815797
-0.0809713
-0.080356
-0.0797338
-0.0791048
-0.078469
-0.0778267
-0.0771777
-0.0765223
-0.0758604
-0.0751924
-0.0745181
-0.0738379
-0.0731517
-0.0724598
-0.0717622
-0.0710591
-0.0703507
-0.069637
-0.0689182
-0.0681945
-0.0674661
-0.066733
-0.0659956
-0.0652539
-0.0645081
-0.0637584
-0.0630051
-0.0622483
-0.0614882
-0.0607252
-0.059959
-0.0591901
-0.058419
-0.0576457
-0.0568703
-0.0560932
-0.0553145
-0.0545345
-0.0537534
-0.0529716
-0.0521891
-0.0514063
-0.0506234
-0.0498407
-0.0490584
-0.0482768
-0.0474961
-0.0467166
-0.0459385
-0.0451621
-0.0443877
-0.0436155
-0.0428458
-0.0420787
-0.0413147
-0.0405539
-0.0397965
-0.0390429
-0.0382933
-0.0375479
-0.036807
-0.0360707
-0.0353394
-0.0346133
-0.0338926
-0.0331775
-0.0324683
-0.0317652
-0.0310683
-0.0303779
-0.0296941
-0.0290173
-0.0283475
-0.0276849
-0.0270298
-0.0263823
-0.0257425
-0.0251105
-0.0244866
-0.0238709
-0.0232635
-0.0226645
-0.0220741
-0.0214923
-0.0209192
-0.020355
-0.0197997
-0.0192533
-0.018716
-0.0181878
-0.0176688
-0.017159
-0.0166584
-0.016167
-0.0156849
-0.015212
-0.0147485
-0.0142941
-0.013849
-0.0134131
-0.0129864
-0.0125688
-0.0121602
-0.0117606
-0.01137
-0.0109881
-0.0106149
-0.0102501
-0.0098937
-0.00954494
-0.00920445
-0.00887344
-0.00855174
-0.00823899
-0.00793472
-0.00763894
-0.00735139
-0.00707182
-0.00680004
-0.0065359
-0.00627929
-0.00603004
-0.00578805
-0.00555315
-0.00532519
-0.00510413
-0.00488974
-0.00468191
-0.00448051
-0.0042854
-0.00409645
-0.00391353
-0.0037365
-0.00356522
-0.00339957
-0.00323941
-0.00308461
-0.00293504
-0.00279057
-0.00265107
-0.00251641
-0.00238647
-0.00226112
-0.00214025
-0.00202372
-0.00191143
-0.00180324
-0.00169907
-0.00159876
-0.00150224
-0.00140935
-0.00132004
-0.00123414
-0.00115162
-0.00107227
-0.000996104
-0.000922868
-0.000852639
-0.000785069
-0.000720333
-0.000657926
-0.000598177
-0.000540306
-0.000484883
-0.000430641
-0.000378621
-0.000326357
-0.000277482
-0.000222389
-0.00018333
-0.000107826
-0.000131344
-0.159397
-0.15376
-0.13741
-0.117934
-0.101588
-0.0921826
-0.0876344
-0.0855562
-0.0849555
-0.0854495
-0.0866021
-0.0880469
-0.0895932
-0.0911488
-0.0926557
-0.0940785
-0.0954005
-0.0966167
-0.0977288
-0.0987409
-0.0996602
-0.100492
-0.101249
-0.10193
-0.102547
-0.103107
-0.103607
-0.10406
-0.104462
-0.104825
-0.105146
-0.105435
-0.105687
-0.105914
-0.10611
-0.106283
-0.10643
-0.106559
-0.106665
-0.106755
-0.106828
-0.106887
-0.106929
-0.106958
-0.106973
-0.106976
-0.106966
-0.106945
-0.106913
-0.106872
-0.10682
-0.106759
-0.106691
-0.106614
-0.106528
-0.106434
-0.106332
-0.106223
-0.106105
-0.105981
-0.10585
-0.105711
-0.105564
-0.10541
-0.105251
-0.105085
-0.104913
-0.104734
-0.104548
-0.104356
-0.104158
-0.103953
-0.103741
-0.103523
-0.103299
-0.103068
-0.102831
-0.102587
-0.102337
-0.10208
-0.101817
-0.101547
-0.10127
-0.100987
-0.100697
-0.1004
-0.100096
-0.0997862
-0.0994691
-0.099145
-0.0988141
-0.0984761
-0.0981312
-0.0977793
-0.0974202
-0.097054
-0.0966808
-0.0963002
-0.0959125
-0.0955175
-0.0951152
-0.0947056
-0.0942887
-0.0938644
-0.0934327
-0.0929935
-0.092547
-0.092093
-0.0916317
-0.0911629
-0.090687
-0.0902034
-0.0897112
-0.0892117
-0.0887052
-0.0881917
-0.0876706
-0.087142
-0.0866058
-0.0860622
-0.0855112
-0.0849528
-0.0843871
-0.0838142
-0.0832339
-0.0826466
-0.082052
-0.0814504
-0.0808418
-0.0802262
-0.0796037
-0.0789745
-0.0783385
-0.0776959
-0.0770467
-0.0763911
-0.0757291
-0.0750609
-0.0743865
-0.0737062
-0.0730199
-0.0723278
-0.0716302
-0.0709271
-0.0702186
-0.0695049
-0.0687861
-0.0680624
-0.067334
-0.066601
-0.0658637
-0.0651221
-0.0643765
-0.063627
-0.0628738
-0.0621172
-0.0613574
-0.0605946
-0.0598286
-0.0590601
-0.0582893
-0.0575164
-0.0567414
-0.0559646
-0.0551864
-0.0544068
-0.0536263
-0.0528449
-0.052063
-0.0512807
-0.0504984
-0.0497163
-0.0489347
-0.0481537
-0.0473737
-0.0465949
-0.0458176
-0.045042
-0.0442684
-0.043497
-0.0427281
-0.041962
-0.0411988
-0.0404389
-0.0396825
-0.0389299
-0.0381813
-0.0374369
-0.036697
-0.0359618
-0.0352316
-0.0345066
-0.0337871
-0.0330731
-0.0323651
-0.0316631
-0.0309674
-0.0302782
-0.0295957
-0.0289201
-0.0282516
-0.0275904
-0.0269365
-0.0262903
-0.0256518
-0.0250211
-0.0243986
-0.0237843
-0.0231782
-0.0225806
-0.0219915
-0.0214111
-0.0208394
-0.0202765
-0.0197226
-0.0191776
-0.0186417
-0.0181149
-0.0175973
-0.0170888
-0.0165896
-0.0160996
-0.0156188
-0.0151474
-0.0146851
-0.0142321
-0.0137884
-0.0133538
-0.0129284
-0.0125121
-0.0121048
-0.0117065
-0.0113171
-0.0109364
-0.0105645
-0.010201
-0.00984581
-0.00949854
-0.00915953
-0.00882981
-0.00850927
-0.00819755
-0.00789431
-0.0075995
-0.0073129
-0.00703426
-0.00676342
-0.00650021
-0.00624452
-0.00599618
-0.00575509
-0.00552109
-0.00529401
-0.00507382
-0.00486029
-0.0046533
-0.00445273
-0.00425844
-0.00407028
-0.00388814
-0.00371188
-0.00354135
-0.00337644
-0.003217
-0.0030629
-0.00291401
-0.00277021
-0.00263136
-0.00249733
-0.00236801
-0.00224327
-0.00212298
-0.00200702
-0.00189529
-0.00178764
-0.00168399
-0.00158419
-0.00148816
-0.00139576
-0.00130692
-0.00122147
-0.00113938
-0.00106045
-0.000984703
-0.000911864
-0.000842024
-0.000774825
-0.000710452
-0.000648395
-0.000588981
-0.000531444
-0.000476328
-0.000422404
-0.000370657
-0.000318733
-0.000269998
-0.00021547
-0.000176503
-0.000100754
-0.000131539
-0.145602
-0.141805
-0.131319
-0.118136
-0.106209
-0.0982927
-0.0937903
-0.0913172
-0.0901304
-0.0899091
-0.0903489
-0.0911687
-0.0921874
-0.0933009
-0.0944413
-0.095563
-0.0966378
-0.097651
-0.0985953
-0.0994692
-0.100271
-0.101006
-0.10168
-0.102296
-0.102856
-0.103365
-0.103823
-0.104238
-0.104609
-0.104943
-0.105241
-0.105508
-0.105743
-0.105952
-0.106134
-0.106295
-0.106432
-0.10655
-0.106648
-0.106731
-0.106796
-0.106848
-0.106884
-0.106908
-0.106918
-0.106916
-0.106903
-0.106879
-0.106844
-0.106799
-0.106745
-0.106682
-0.106611
-0.106532
-0.106444
-0.106348
-0.106245
-0.106133
-0.106015
-0.105889
-0.105757
-0.105617
-0.105469
-0.105315
-0.105154
-0.104988
-0.104815
-0.104635
-0.104449
-0.104256
-0.104057
-0.103851
-0.103639
-0.10342
-0.103196
-0.102964
-0.102726
-0.102482
-0.102231
-0.101974
-0.10171
-0.101439
-0.101162
-0.100879
-0.100588
-0.100291
-0.0999869
-0.0996761
-0.0993585
-0.099034
-0.0987026
-0.0983641
-0.0980188
-0.0976663
-0.0973068
-0.0969402
-0.0965664
-0.0961854
-0.0957972
-0.0954017
-0.094999
-0.0945889
-0.0941715
-0.0937467
-0.0933146
-0.092875
-0.092428
-0.0919736
-0.0915118
-0.0910426
-0.0905661
-0.0900819
-0.0895895
-0.0890898
-0.0885829
-0.0880689
-0.0875474
-0.0870183
-0.0864817
-0.0859377
-0.0853863
-0.0848276
-0.0842615
-0.0836882
-0.0831076
-0.0825199
-0.0819251
-0.0813232
-0.0807142
-0.0800984
-0.0794756
-0.0788461
-0.0782099
-0.0775671
-0.0769176
-0.0762619
-0.0755996
-0.0749313
-0.0742567
-0.0735762
-0.0728898
-0.0721977
-0.0714999
-0.0707967
-0.0700882
-0.0693745
-0.0686557
-0.067932
-0.0672037
-0.0664707
-0.0657334
-0.0649919
-0.0642464
-0.0634971
-0.0627441
-0.0619877
-0.0612281
-0.0604655
-0.0596998
-0.0589316
-0.0581612
-0.0573885
-0.0566139
-0.0558375
-0.0550597
-0.0542806
-0.0535005
-0.0527196
-0.0519382
-0.0511565
-0.0503748
-0.0495933
-0.0488123
-0.048032
-0.0472527
-0.0464746
-0.0456981
-0.0449232
-0.0441504
-0.0433798
-0.0426118
-0.0418466
-0.0410844
-0.0403255
-0.0395701
-0.0388185
-0.0380709
-0.0373276
-0.0365889
-0.0358548
-0.0351258
-0.034402
-0.0336836
-0.0329709
-0.0322641
-0.0315633
-0.0308689
-0.030181
-0.0294998
-0.0288255
-0.0281583
-0.0274983
-0.0268457
-0.0262007
-0.0255635
-0.0249341
-0.0243129
-0.0236999
-0.0230952
-0.0224989
-0.0219111
-0.021332
-0.0207616
-0.0202001
-0.0196475
-0.0191039
-0.0185693
-0.0180438
-0.0175275
-0.0170204
-0.0165225
-0.0160338
-0.0155544
-0.0150842
-0.0146233
-0.0141716
-0.0137292
-0.0132959
-0.0128717
-0.0124566
-0.0120506
-0.0116536
-0.0112654
-0.010886
-0.0105152
-0.010153
-0.00979902
-0.00945316
-0.00911556
-0.00878712
-0.00846773
-0.00815706
-0.00785487
-0.00756103
-0.00727537
-0.00699767
-0.00672773
-0.00646543
-0.00621063
-0.00596316
-0.00572295
-0.00548979
-0.00526355
-0.0050442
-0.00483147
-0.00462528
-0.00442549
-0.00423197
-0.00404457
-0.00386317
-0.00368763
-0.00351782
-0.0033536
-0.00319484
-0.0030414
-0.00289316
-0.00274999
-0.00261176
-0.00247834
-0.00234961
-0.00222544
-0.00210571
-0.0019903
-0.0018791
-0.00177196
-0.00166882
-0.0015695
-0.00147396
-0.00138201
-0.00129362
-0.00120861
-0.00112695
-0.00104843
-0.00097308
-0.000900628
-0.000831164
-0.000764331
-0.000700312
-0.0006386
-0.000579518
-0.000522312
-0.000467512
-0.000413909
-0.00036246
-0.000310886
-0.000262359
-0.000208411
-0.000169922
-9.37139e-05
-0.00013326
-0.136247
-0.132713
-0.125751
-0.117191
-0.108991
-0.102847
-0.0987822
-0.0961853
-0.0946421
-0.0939297
-0.0938356
-0.0941522
-0.0947247
-0.0954511
-0.0962602
-0.0971019
-0.0979416
-0.0987576
-0.0995368
-0.100272
-0.100957
-0.101594
-0.102181
-0.102723
-0.103221
-0.103676
-0.10409
-0.104465
-0.104802
-0.105106
-0.105378
-0.105621
-0.105836
-0.106027
-0.106194
-0.10634
-0.106464
-0.106571
-0.10666
-0.106733
-0.10679
-0.106834
-0.106864
-0.106881
-0.106886
-0.106879
-0.106861
-0.106833
-0.106794
-0.106747
-0.106689
-0.106624
-0.10655
-0.106468
-0.106378
-0.106281
-0.106175
-0.106062
-0.105942
-0.105815
-0.105681
-0.10554
-0.105392
-0.105236
-0.105075
-0.104907
-0.104733
-0.104553
-0.104366
-0.104172
-0.103972
-0.103766
-0.103553
-0.103334
-0.103109
-0.102877
-0.102638
-0.102393
-0.102142
-0.101884
-0.10162
-0.101349
-0.101071
-0.100787
-0.100496
-0.100198
-0.0998936
-0.0995823
-0.0992643
-0.0989392
-0.0986074
-0.0982685
-0.0979226
-0.0975697
-0.0972097
-0.0968426
-0.0964683
-0.0960868
-0.0956981
-0.0953022
-0.0948989
-0.0944884
-0.0940705
-0.0936452
-0.0932126
-0.0927725
-0.092325
-0.0918701
-0.0914078
-0.090938
-0.090461
-0.0899762
-0.0894835
-0.0889834
-0.0884761
-0.0879615
-0.0874395
-0.0869099
-0.0863728
-0.0858284
-0.0852765
-0.0847173
-0.0841508
-0.0835771
-0.082996
-0.0824079
-0.0818126
-0.0812103
-0.080601
-0.0799848
-0.0793616
-0.0787318
-0.0780951
-0.077452
-0.0768022
-0.0761461
-0.0754836
-0.074815
-0.0741401
-0.0734594
-0.0727727
-0.0720804
-0.0713824
-0.070679
-0.0699703
-0.0692564
-0.0685375
-0.0678137
-0.0670853
-0.0663523
-0.0656149
-0.0648734
-0.0641278
-0.0633785
-0.0626256
-0.0618692
-0.0611097
-0.0603471
-0.0595816
-0.0588136
-0.0580434
-0.0572709
-0.0564965
-0.0557204
-0.0549429
-0.0541641
-0.0533843
-0.0526038
-0.0518228
-0.0510415
-0.0502602
-0.0494792
-0.0486987
-0.0479189
-0.0471402
-0.0463627
-0.0455867
-0.0448125
-0.0440403
-0.0432705
-0.0425032
-0.0417387
-0.0409773
-0.0402192
-0.0394646
-0.0387139
-0.0379672
-0.0372248
-0.036487
-0.0357539
-0.0350258
-0.034303
-0.0335856
-0.032874
-0.0321682
-0.0314686
-0.0307753
-0.0300885
-0.0294084
-0.0287353
-0.0280692
-0.0274103
-0.0267589
-0.0261151
-0.0254791
-0.0248509
-0.024231
-0.0236191
-0.0230156
-0.0224206
-0.021834
-0.0212562
-0.0206871
-0.0201268
-0.0195755
-0.0190331
-0.0184998
-0.0179756
-0.0174606
-0.0169547
-0.0164581
-0.0159707
-0.0154925
-0.0150236
-0.014564
-0.0141135
-0.0136723
-0.0132402
-0.0128173
-0.0124035
-0.0119987
-0.0116028
-0.0112158
-0.0108376
-0.010468
-0.010107
-0.00975423
-0.0094097
-0.00907346
-0.00874623
-0.00842793
-0.00811829
-0.00781709
-0.0075242
-0.00723946
-0.00696264
-0.00669358
-0.00643214
-0.00617819
-0.00593156
-0.00569216
-0.0054598
-0.00523437
-0.0050158
-0.00480383
-0.0045984
-0.00439935
-0.00420655
-0.00401986
-0.00383915
-0.0036643
-0.00349515
-0.00333158
-0.00317346
-0.00302065
-0.00287302
-0.00273045
-0.0025928
-0.00245995
-0.00233177
-0.00220814
-0.00208894
-0.00197403
-0.00186333
-0.00175669
-0.00165401
-0.00155516
-0.00146006
-0.00136856
-0.00128059
-0.00119599
-0.00111473
-0.00103661
-0.000961636
-0.000889552
-0.000820448
-0.000753963
-0.000690284
-0.000628904
-0.000570145
-0.000513259
-0.000458772
-0.000405486
-0.000354351
-0.000303127
-0.000254872
-0.000201498
-0.000163803
-8.71227e-05
-0.000135522
-0.129647
-0.126706
-0.121916
-0.116129
-0.110315
-0.105561
-0.10209
-0.0996646
-0.0980657
-0.0971446
-0.0967546
-0.096749
-0.0970074
-0.0974417
-0.0979874
-0.098596
-0.0992326
-0.0998732
-0.100501
-0.101107
-0.101682
-0.102223
-0.102728
-0.103198
-0.103633
-0.104033
-0.1044
-0.104735
-0.105037
-0.10531
-0.105555
-0.105774
-0.105968
-0.10614
-0.10629
-0.106421
-0.106533
-0.106628
-0.106706
-0.10677
-0.106818
-0.106854
-0.106877
-0.106887
-0.106886
-0.106874
-0.106851
-0.106819
-0.106776
-0.106725
-0.106664
-0.106595
-0.106519
-0.106434
-0.106342
-0.106242
-0.106134
-0.106019
-0.105897
-0.105769
-0.105633
-0.10549
-0.105341
-0.105184
-0.105022
-0.104853
-0.104678
-0.104497
-0.104309
-0.104114
-0.103914
-0.103707
-0.103493
-0.103273
-0.103047
-0.102814
-0.102575
-0.10233
-0.102078
-0.101819
-0.101554
-0.101283
-0.101005
-0.10072
-0.100428
-0.10013
-0.099825
-0.0995132
-0.0991946
-0.0988691
-0.0985366
-0.0981972
-0.0978508
-0.0974974
-0.0971368
-0.0967692
-0.0963944
-0.0960124
-0.0956231
-0.0952266
-0.0948229
-0.0944118
-0.0939933
-0.0935675
-0.0931343
-0.0926937
-0.0922456
-0.0917901
-0.0913272
-0.0908569
-0.0903792
-0.0898938
-0.0894006
-0.0889001
-0.0883923
-0.0878771
-0.0873545
-0.0868243
-0.0862867
-0.0857417
-0.0851893
-0.0846295
-0.0840625
-0.0834882
-0.0829066
-0.082318
-0.0817222
-0.0811193
-0.0805095
-0.0798928
-0.0792691
-0.0786388
-0.0780017
-0.0773581
-0.0767079
-0.0760513
-0.0753884
-0.0747193
-0.0740441
-0.0733629
-0.0726759
-0.0719831
-0.0712848
-0.0705811
-0.069872
-0.0691578
-0.0684386
-0.0677146
-0.0669858
-0.0662526
-0.065515
-0.0647733
-0.0640276
-0.0632781
-0.062525
-0.0617685
-0.0610089
-0.0602462
-0.0594806
-0.0587127
-0.0579425
-0.05717
-0.0563956
-0.0556196
-0.0548421
-0.0540634
-0.0532838
-0.0525035
-0.0517226
-0.0509416
-0.0501606
-0.0493798
-0.0485996
-0.0478202
-0.0470417
-0.0462646
-0.0454891
-0.0447153
-0.0439436
-0.0431742
-0.0424074
-0.0416433
-0.0408824
-0.0401248
-0.0393708
-0.0386206
-0.0378745
-0.0371327
-0.0363955
-0.0356631
-0.0349357
-0.0342135
-0.0334969
-0.032786
-0.0320809
-0.0313821
-0.0306896
-0.0300036
-0.0293243
-0.0286521
-0.0279869
-0.027329
-0.0266786
-0.0260359
-0.0254008
-0.0247737
-0.0241549
-0.0235441
-0.0229417
-0.0223477
-0.0217623
-0.0211855
-0.0206176
-0.0200584
-0.0195082
-0.018967
-0.0184348
-0.0179118
-0.0173979
-0.0168932
-0.0163977
-0.0159114
-0.0154344
-0.0149666
-0.0145081
-0.0140588
-0.0136187
-0.0131877
-0.0127659
-0.0123532
-0.0119495
-0.0115547
-0.0111688
-0.0107917
-0.0104232
-0.0100632
-0.00971163
-0.00936832
-0.00903331
-0.00870721
-0.00838994
-0.00808127
-0.00778102
-0.00748903
-0.00720516
-0.00692919
-0.00666097
-0.00640035
-0.00614721
-0.00590137
-0.00566276
-0.00543117
-0.0052065
-0.00498868
-0.00477745
-0.00457274
-0.0043744
-0.0041823
-0.0039963
-0.00381627
-0.00364206
-0.00347354
-0.00331059
-0.00315306
-0.00300084
-0.00285378
-0.00271176
-0.00257466
-0.00244234
-0.00231469
-0.00219156
-0.00207286
-0.00195844
-0.00184821
-0.00174202
-0.00163979
-0.00154138
-0.0014467
-0.00135561
-0.00126804
-0.00118383
-0.00110295
-0.0010252
-0.000950582
-0.000878848
-0.000810082
-0.00074393
-0.000680572
-0.000619511
-0.000561059
-0.000504484
-0.000450302
-0.000397328
-0.000346517
-0.000295639
-0.000247717
-0.000194895
-0.000158255
-8.11082e-05
-0.000137896
-0.125018
-0.122668
-0.119223
-0.115141
-0.110944
-0.10731
-0.104463
-0.102328
-0.100806
-0.0998133
-0.0992569
-0.0990381
-0.0990689
-0.0992789
-0.0996129
-0.100028
-0.10049
-0.100977
-0.101469
-0.101956
-0.102427
-0.102878
-0.103305
-0.103707
-0.104081
-0.104427
-0.104747
-0.10504
-0.105307
-0.105548
-0.105766
-0.10596
-0.106133
-0.106285
-0.106418
-0.106534
-0.106632
-0.106714
-0.106781
-0.106835
-0.106874
-0.106901
-0.106916
-0.10692
-0.106913
-0.106895
-0.106867
-0.106829
-0.106783
-0.106727
-0.106663
-0.106591
-0.106511
-0.106423
-0.106328
-0.106226
-0.106116
-0.105999
-0.105875
-0.105744
-0.105607
-0.105463
-0.105312
-0.105154
-0.104991
-0.104821
-0.104644
-0.104462
-0.104273
-0.104077
-0.103876
-0.103668
-0.103453
-0.103233
-0.103006
-0.102772
-0.102532
-0.102286
-0.102034
-0.101774
-0.101509
-0.101236
-0.100958
-0.100672
-0.10038
-0.100081
-0.0997756
-0.0994632
-0.099144
-0.0988179
-0.0984849
-0.0981449
-0.0977979
-0.0974439
-0.0970827
-0.0967145
-0.0963391
-0.0959565
-0.0955667
-0.0951696
-0.0947652
-0.0943535
-0.0939345
-0.093508
-0.0930742
-0.092633
-0.0921843
-0.0917282
-0.0912647
-0.0907937
-0.0903153
-0.0898293
-0.0893356
-0.0888345
-0.0883261
-0.0878103
-0.087287
-0.0867562
-0.0862179
-0.0856723
-0.0851192
-0.0845588
-0.0839912
-0.0834163
-0.0828341
-0.0822448
-0.0816484
-0.081045
-0.0804345
-0.0798172
-0.079193
-0.0785621
-0.0779244
-0.0772802
-0.0766295
-0.0759724
-0.0753089
-0.0746393
-0.0739636
-0.0732819
-0.0725944
-0.0719012
-0.0712024
-0.0704982
-0.0697887
-0.0690741
-0.0683545
-0.06763
-0.0669009
-0.0661673
-0.0654294
-0.0646873
-0.0639413
-0.0631915
-0.0624382
-0.0616814
-0.0609216
-0.0601586
-0.0593929
-0.0586249
-0.0578545
-0.0570819
-0.0563074
-0.0555313
-0.0547538
-0.0539751
-0.0531954
-0.0524151
-0.0516343
-0.0508534
-0.0500724
-0.0492918
-0.0485117
-0.0477325
-0.0469542
-0.0461774
-0.045402
-0.0446285
-0.0438571
-0.0430881
-0.0423216
-0.041558
-0.0407974
-0.0400403
-0.0392867
-0.038537
-0.0377914
-0.0370501
-0.0363134
-0.0355816
-0.0348547
-0.0341332
-0.0334172
-0.0327069
-0.0320026
-0.0313044
-0.0306126
-0.0299274
-0.0292489
-0.0285774
-0.027913
-0.0272559
-0.0266063
-0.0259645
-0.0253303
-0.0247041
-0.0240861
-0.0234763
-0.0228748
-0.0222817
-0.0216972
-0.0211214
-0.0205544
-0.0199962
-0.019447
-0.0189067
-0.0183755
-0.0178535
-0.0173405
-0.0168368
-0.0163423
-0.015857
-0.015381
-0.0149142
-0.0144566
-0.0140083
-0.0135692
-0.0131392
-0.0127183
-0.0123066
-0.0119038
-0.01151
-0.0111251
-0.0107489
-0.0103814
-0.0100224
-0.00967175
-0.0093295
-0.00899558
-0.0086705
-0.00835418
-0.00804641
-0.00774703
-0.00745589
-0.00717282
-0.00689765
-0.00663021
-0.00637035
-0.00611796
-0.00587286
-0.00563498
-0.00540409
-0.00518012
-0.004963
-0.00475244
-0.00454839
-0.0043507
-0.00415924
-0.00397387
-0.00379446
-0.00362085
-0.00345292
-0.00329054
-0.00313358
-0.00298191
-0.0028354
-0.00269391
-0.00255733
-0.00242552
-0.00229837
-0.00217573
-0.00205751
-0.00194356
-0.00183378
-0.00172804
-0.00162623
-0.00152822
-0.00143394
-0.00134323
-0.00125605
-0.0011722
-0.00109168
-0.00101427
-0.000939998
-0.000868595
-0.00080015
-0.000734313
-0.00067126
-0.000610503
-0.000552345
-0.000496068
-0.000442184
-0.000389514
-0.000339037
-0.000288499
-0.000240968
-0.000188667
-0.000153282
-7.56837e-05
-0.000140201
-0.12168
-0.119812
-0.117259
-0.114296
-0.111217
-0.108438
-0.106139
-0.104316
-0.102938
-0.101962
-0.101336
-0.100994
-0.100875
-0.100925
-0.101099
-0.101361
-0.101681
-0.102038
-0.102413
-0.102795
-0.103173
-0.103542
-0.103896
-0.104232
-0.104549
-0.104845
-0.105119
-0.105371
-0.105602
-0.105813
-0.106002
-0.106172
-0.106324
-0.106456
-0.106572
-0.106672
-0.106756
-0.106826
-0.106881
-0.106924
-0.106954
-0.106973
-0.10698
-0.106976
-0.106963
-0.106939
-0.106905
-0.106863
-0.106812
-0.106752
-0.106684
-0.106609
-0.106525
-0.106435
-0.106336
-0.106231
-0.106119
-0.106
-0.105874
-0.105741
-0.105602
-0.105456
-0.105303
-0.105144
-0.104979
-0.104808
-0.104631
-0.104447
-0.104257
-0.10406
-0.103858
-0.103648
-0.103433
-0.103212
-0.102984
-0.102749
-0.102509
-0.102262
-0.102008
-0.101748
-0.101482
-0.101209
-0.100929
-0.100643
-0.10035
-0.100051
-0.0997447
-0.0994316
-0.0991118
-0.098785
-0.0984513
-0.0981107
-0.097763
-0.0974083
-0.0970466
-0.0966777
-0.0963016
-0.0959184
-0.0955279
-0.0951302
-0.0947252
-0.0943128
-0.0938931
-0.093466
-0.0930315
-0.0925896
-0.0921403
-0.0916835
-0.0912192
-0.0907475
-0.0902684
-0.0897817
-0.0892874
-0.0887858
-0.0882767
-0.0877601
-0.0872361
-0.0867046
-0.0861656
-0.0856193
-0.0850655
-0.0845044
-0.0839361
-0.0833605
-0.0827776
-0.0821876
-0.0815905
-0.0809864
-0.0803753
-0.0797573
-0.0791324
-0.0785008
-0.0778625
-0.0772177
-0.0765663
-0.0759085
-0.0752444
-0.0745742
-0.0738978
-0.0732156
-0.0725275
-0.0718337
-0.0711343
-0.0704296
-0.0697195
-0.0690043
-0.0682842
-0.0675592
-0.0668296
-0.0660955
-0.0653571
-0.0646146
-0.0638681
-0.0631179
-0.0623642
-0.061607
-0.0608468
-0.0600835
-0.0593175
-0.0585492
-0.0577785
-0.0570057
-0.0562309
-0.0554546
-0.0546769
-0.053898
-0.0531182
-0.0523378
-0.0515569
-0.0507759
-0.0499949
-0.0492142
-0.0484342
-0.0476549
-0.0468768
-0.0460999
-0.0453247
-0.0445514
-0.0437801
-0.0430112
-0.0422449
-0.0414815
-0.0407213
-0.0399644
-0.0392111
-0.0384618
-0.0377165
-0.0369756
-0.0362394
-0.0355079
-0.0347816
-0.0340605
-0.033345
-0.0326353
-0.0319315
-0.0312339
-0.0305427
-0.029858
-0.0291802
-0.0285093
-0.0278456
-0.0271892
-0.0265403
-0.0258992
-0.0252657
-0.0246403
-0.0240231
-0.023414
-0.0228133
-0.022221
-0.0216374
-0.0210624
-0.0204962
-0.0199389
-0.0193905
-0.0188511
-0.0183208
-0.0177996
-0.0172875
-0.0167847
-0.016291
-0.0158066
-0.0153315
-0.0148656
-0.0144089
-0.0139615
-0.0135233
-0.0130942
-0.0126742
-0.0122633
-0.0118615
-0.0114685
-0.0110845
-0.0107092
-0.0103426
-0.00998446
-0.00963479
-0.00929352
-0.00896061
-0.00863646
-0.00832102
-0.00801407
-0.00771549
-0.00742511
-0.00714279
-0.00686834
-0.00660161
-0.00634245
-0.00609074
-0.00584631
-0.00560908
-0.00537883
-0.0051555
-0.00493899
-0.00472903
-0.00452557
-0.00432846
-0.00413757
-0.00395275
-0.00377388
-0.00360081
-0.00343342
-0.00327158
-0.00311514
-0.00296398
-0.00281797
-0.00267697
-0.00254087
-0.00240953
-0.00228284
-0.00216065
-0.00204286