/*--------------------------------*- C++ -*----------------------------------*\
| =========                 |                                                 |
| \\      /  F ield         | OpenFOAM: The Open Source CFD Toolbox           |
|  \\    /   O peration     | Version:  v2012                                 |
|   \\  /    A nd           | Website:  www.openfoam.com                      |
|    \\/     M anipulation  |                                                 |
\*---------------------------------------------------------------------------*/
FoamFile
{
    version     2.0;
    format      ascii;
    class       surfaceScalarField;
    location    "4000";
    object      phi;
}
// * * * * * * * * * * * * * * * * * * * * * * * * * * * * * * * * * * * * * //

dimensions      [0 3 -1 0 0 0 0];
oriented        oriented;


internalField   nonuniform List<scalar> 
46978
(
-5.63875e-07
5.63873e-07
-5.10229e-07
-5.3646e-08
-6.62242e-08
-4.44003e-07
4.3929e-07
-5.05512e-07
8.15005e-07
-3.75714e-07
1.09823e-06
-2.83222e-07
1.31662e-06
-2.18385e-07
1.48715e-06
-1.70538e-07
1.62062e-06
-1.33461e-07
1.72699e-06
-1.06372e-07
1.81359e-06
-8.66004e-08
1.88535e-06
-7.17612e-08
1.94573e-06
-6.03792e-08
1.99726e-06
-5.15294e-08
2.04179e-06
-4.4525e-08
2.08068e-06
-3.88908e-08
2.11495e-06
-3.42712e-08
2.14539e-06
-3.04435e-08
2.17262e-06
-2.72274e-08
2.19711e-06
-2.44916e-08
2.21926e-06
-2.21426e-08
2.23936e-06
-2.01018e-08
2.25766e-06
-1.83053e-08
2.27441e-06
-1.67436e-08
2.2897e-06
-1.52966e-08
2.30376e-06
-1.4059e-08
2.31664e-06
-1.28754e-08
2.32849e-06
-1.18509e-08
2.33936e-06
-1.08701e-08
2.34936e-06
-1.00057e-08
2.35854e-06
-9.17759e-09
2.36698e-06
-8.4366e-09
2.3747e-06
-7.72548e-09
2.38179e-06
-7.08214e-09
2.38825e-06
-6.46151e-09
2.39415e-06
-5.89839e-09
2.39949e-06
-5.3426e-09
2.40435e-06
-4.86418e-09
2.40869e-06
-4.33813e-09
2.41265e-06
-3.96006e-09
2.41611e-06
-3.45466e-09
2.41921e-06
-3.10424e-09
2.42187e-06
-2.65758e-09
2.4242e-06
-2.33237e-09
2.42614e-06
-1.93812e-09
2.42778e-06
-1.63728e-09
2.42906e-06
-1.28329e-09
2.43007e-06
-1.01112e-09
2.43076e-06
-6.88561e-10
2.4312e-06
-4.45078e-10
2.43134e-06
-1.40229e-10
2.43121e-06
1.34775e-10
2.43083e-06
3.75123e-10
2.43025e-06
5.85009e-10
2.42945e-06
7.99945e-10
2.42845e-06
1.00146e-09
2.42724e-06
1.20294e-09
2.42585e-06
1.39661e-09
2.42426e-06
1.58752e-09
2.42249e-06
1.77196e-09
2.42054e-06
1.94832e-09
2.41842e-06
2.11958e-09
2.41613e-06
2.29152e-09
2.41366e-06
2.46464e-09
2.41104e-06
2.6204e-09
2.40826e-06
2.78169e-09
2.40533e-06
2.93075e-09
2.40225e-06
3.08129e-09
2.39903e-06
3.22101e-09
2.39567e-06
3.36308e-09
2.39217e-06
3.49413e-09
2.38854e-06
3.62836e-09
2.38479e-06
3.75151e-09
2.38091e-06
3.8786e-09
2.37692e-06
3.99474e-09
2.3728e-06
4.11544e-09
2.36858e-06
4.22533e-09
2.36424e-06
4.34031e-09
2.35979e-06
4.44467e-09
2.35524e-06
4.55458e-09
2.35058e-06
4.65407e-09
2.34582e-06
4.75952e-09
2.34097e-06
4.85476e-09
2.33601e-06
4.95632e-09
2.33097e-06
5.04788e-09
2.32582e-06
5.14607e-09
2.32059e-06
5.23446e-09
2.31526e-06
5.32974e-09
2.30984e-06
5.41544e-09
2.30433e-06
5.50822e-09
2.29874e-06
5.59161e-09
2.29306e-06
5.68224e-09
2.28729e-06
5.76366e-09
2.28144e-06
5.85246e-09
2.27551e-06
5.93221e-09
2.26949e-06
6.01943e-09
2.26339e-06
6.09778e-09
2.25721e-06
6.18367e-09
2.25095e-06
6.26084e-09
2.2446e-06
6.34561e-09
2.23818e-06
6.42179e-09
2.23167e-06
6.50563e-09
2.22509e-06
6.58099e-09
2.21843e-06
6.66415e-09
2.21169e-06
6.73878e-09
2.20487e-06
6.82153e-09
2.19797e-06
6.89532e-09
2.191e-06
6.97787e-09
2.18395e-06
7.05006e-09
2.17681e-06
7.13162e-09
2.16961e-06
7.20231e-09
2.16234e-06
7.2769e-09
2.15498e-06
7.35551e-09
2.14754e-06
7.4375e-09
2.14003e-06
7.50911e-09
2.13244e-06
7.59055e-09
2.12478e-06
7.6619e-09
2.11704e-06
7.74156e-09
2.10923e-06
7.81294e-09
2.10133e-06
7.89218e-09
2.09337e-06
7.96348e-09
2.08533e-06
8.04232e-09
2.07721e-06
8.11346e-09
2.06902e-06
8.19197e-09
2.06076e-06
8.26294e-09
2.05242e-06
8.34113e-09
2.04401e-06
8.4119e-09
2.03552e-06
8.48974e-09
2.02696e-06
8.56031e-09
2.01832e-06
8.63779e-09
2.00961e-06
8.70813e-09
2.00083e-06
8.7852e-09
1.99197e-06
8.8553e-09
1.98304e-06
8.9319e-09
1.97404e-06
9.00175e-09
1.96496e-06
9.07782e-09
1.95581e-06
9.14738e-09
1.94659e-06
9.22281e-09
1.9373e-06
9.29206e-09
1.92793e-06
9.36667e-09
1.91849e-06
9.4356e-09
1.90899e-06
9.50898e-09
1.89941e-06
9.57786e-09
1.88976e-06
9.64994e-09
1.88004e-06
9.71888e-09
1.87025e-06
9.78994e-09
1.86039e-06
9.85841e-09
1.85046e-06
9.92817e-09
1.84047e-06
9.99618e-09
1.8304e-06
1.00642e-08
1.82027e-06
1.01318e-08
1.81007e-06
1.01982e-08
1.79981e-06
1.02649e-08
1.78948e-06
1.03294e-08
1.77908e-06
1.03949e-08
1.76863e-06
1.04581e-08
1.7581e-06
1.05216e-08
1.74752e-06
1.05837e-08
1.73687e-06
1.0645e-08
1.72617e-06
1.07036e-08
1.71541e-06
1.07645e-08
1.70458e-06
1.08236e-08
1.6937e-06
1.08807e-08
1.68277e-06
1.09369e-08
1.67177e-06
1.09915e-08
1.66073e-06
1.10453e-08
1.64963e-06
1.10974e-08
1.63848e-06
1.11484e-08
1.62729e-06
1.11978e-08
1.61604e-06
1.12461e-08
1.60475e-06
1.12925e-08
1.59341e-06
1.13377e-08
1.58203e-06
1.1381e-08
1.5706e-06
1.1423e-08
1.55914e-06
1.14629e-08
1.54764e-06
1.15014e-08
1.5361e-06
1.15377e-08
1.52453e-06
1.15725e-08
1.51293e-06
1.1605e-08
1.50129e-06
1.16359e-08
1.48963e-06
1.16645e-08
1.47793e-06
1.16913e-08
1.46622e-06
1.17157e-08
1.45448e-06
1.17381e-08
1.44272e-06
1.17581e-08
1.43095e-06
1.1776e-08
1.41915e-06
1.17914e-08
1.40735e-06
1.18047e-08
1.39553e-06
1.18154e-08
1.38371e-06
1.18238e-08
1.37188e-06
1.18297e-08
1.36005e-06
1.18332e-08
1.34821e-06
1.1834e-08
1.33638e-06
1.18324e-08
1.32455e-06
1.18282e-08
1.31273e-06
1.18215e-08
1.30092e-06
1.1812e-08
1.28912e-06
1.18002e-08
1.27733e-06
1.17853e-08
1.26557e-06
1.17684e-08
1.25382e-06
1.17476e-08
1.24209e-06
1.17259e-08
1.23039e-06
1.16996e-08
1.21872e-06
1.16727e-08
1.20708e-06
1.16432e-08
1.19547e-06
1.16058e-08
1.1839e-06
1.15705e-08
1.17237e-06
1.15335e-08
1.16087e-06
1.14925e-08
1.14943e-06
1.14487e-08
1.13802e-06
1.14022e-08
1.12667e-06
1.13532e-08
1.11537e-06
1.13016e-08
1.10412e-06
1.12475e-08
1.09293e-06
1.11909e-08
1.0818e-06
1.1132e-08
1.07073e-06
1.10707e-08
1.05972e-06
1.10071e-08
1.04878e-06
1.09412e-08
1.03791e-06
1.08732e-08
1.0271e-06
1.08029e-08
1.01637e-06
1.07307e-08
1.00572e-06
1.06563e-08
9.95137e-07
1.05802e-08
9.84635e-07
1.05019e-08
9.74213e-07
1.04222e-08
9.63873e-07
1.03402e-08
9.53615e-07
1.02575e-08
9.43443e-07
1.01721e-08
9.33356e-07
1.00871e-08
9.23358e-07
9.99825e-09
9.13445e-07
9.91224e-09
9.03626e-07
9.81983e-09
8.9389e-07
9.73513e-09
8.84251e-07
9.63958e-09
8.74689e-07
9.56162e-09
8.65223e-07
9.46646e-09
8.55753e-07
9.46962e-09
8.46168e-07
9.58546e-09
8.3639e-07
9.77802e-09
8.26464e-07
9.92526e-09
8.16464e-07
1.00006e-08
8.06386e-07
1.00776e-08
7.96293e-07
1.00934e-08
7.86205e-07
1.00883e-08
7.76152e-07
1.00526e-08
7.6615e-07
1.00024e-08
7.56209e-07
9.9403e-09
7.46339e-07
9.8701e-09
7.36548e-07
9.79108e-09
7.2684e-07
9.70834e-09
7.1722e-07
9.61925e-09
7.07697e-07
9.52361e-09
6.98268e-07
9.4293e-09
6.88936e-07
9.33116e-09
6.79706e-07
9.23022e-09
6.70579e-07
9.12729e-09
6.61556e-07
9.02283e-09
6.52639e-07
8.91712e-09
6.43829e-07
8.81038e-09
6.35126e-07
8.70284e-09
6.26531e-07
8.59475e-09
6.18045e-07
8.48627e-09
6.09667e-07
8.37751e-09
6.01399e-07
8.26861e-09
5.93239e-07
8.15969e-09
5.85188e-07
8.05085e-09
5.77246e-07
7.9422e-09
5.69412e-07
7.83382e-09
5.61686e-07
7.72581e-09
5.54068e-07
7.61823e-09
5.46557e-07
7.51117e-09
5.39152e-07
7.40466e-09
5.31853e-07
7.29883e-09
5.2466e-07
7.19359e-09
5.1757e-07
7.08927e-09
5.10585e-07
6.98561e-09
5.03702e-07
6.88303e-09
4.96921e-07
6.78108e-09
4.9024e-07
6.68046e-09
4.8366e-07
6.58041e-09
4.77178e-07
6.48201e-09
4.70794e-07
6.38413e-09
4.64505e-07
6.28829e-09
4.58312e-07
6.19302e-09
4.52212e-07
6.10032e-09
4.46204e-07
6.00822e-09
4.40283e-07
5.92049e-09
4.34452e-07
5.83135e-09
4.28697e-07
5.7549e-09
4.23032e-07
5.66489e-09
4.17415e-07
5.6173e-09
4.11891e-07
5.52386e-09
4.06366e-07
5.52464e-09
4.00947e-07
5.41966e-09
3.95339e-07
5.60718e-09
3.90117e-07
5.22218e-09
3.83626e-07
6.49139e-09
3.79191e-07
4.43502e-09
1.14641e-08
9.85787e-07
-4.21913e-07
1.5878e-06
-6.55655e-07
1.90872e-06
-7.64927e-07
2.1023e-06
-6.99088e-07
2.26948e-06
-5.42892e-07
2.40562e-06
-4.19362e-07
2.5152e-06
-3.27974e-07
2.60353e-06
-2.58859e-07
2.67478e-06
-2.04711e-07
2.73266e-06
-1.64258e-07
2.78027e-06
-1.34205e-07
2.81985e-06
-1.11344e-07
2.85309e-06
-9.36179e-08
2.88127e-06
-7.9707e-08
2.90538e-06
-6.8633e-08
2.92617e-06
-5.96862e-08
2.94424e-06
-5.23364e-08
2.96003e-06
-4.62377e-08
2.97391e-06
-4.1108e-08
2.98617e-06
-3.67507e-08
2.99703e-06
-3.29985e-08
3.00669e-06
-2.97638e-08
3.01527e-06
-2.68815e-08
3.02296e-06
-2.44306e-08
3.02973e-06
-2.20724e-08
3.03581e-06
-2.01377e-08
3.04114e-06
-1.82062e-08
3.04589e-06
-1.65974e-08
3.05002e-06
-1.50015e-08
3.05365e-06
-1.36368e-08
3.05676e-06
-1.22901e-08
3.05944e-06
-1.1113e-08
3.06167e-06
-9.95507e-09
3.06351e-06
-8.92687e-09
3.06496e-06
-7.91357e-09
3.06607e-06
-7.00693e-09
3.06683e-06
-6.09963e-09
3.06728e-06
-5.30927e-09
3.06741e-06
-4.47219e-09
3.06719e-06
-3.73782e-09
3.06672e-06
-2.98745e-09
3.06596e-06
-2.34343e-09
3.06498e-06
-1.68149e-09
3.06375e-06
-1.09469e-09
3.0623e-06
-4.97156e-10
3.06063e-06
3.42428e-11
3.05878e-06
5.67539e-10
3.05672e-06
1.05425e-09
3.05448e-06
1.54779e-09
3.05203e-06
2.00368e-09
3.04942e-06
2.47186e-09
3.04661e-06
2.94122e-09
3.04362e-06
3.366e-09
3.04044e-06
3.76588e-09
3.03709e-06
4.15251e-09
3.03356e-06
4.52857e-09
3.02987e-06
4.89236e-09
3.02602e-06
5.24946e-09
3.02201e-06
5.59299e-09
3.01785e-06
5.933e-09
3.01355e-06
6.25018e-09
3.00911e-06
6.55979e-09
3.00452e-06
6.87894e-09
2.9998e-06
7.19091e-09
2.99494e-06
7.48151e-09
2.98994e-06
7.77777e-09
2.98481e-06
8.05611e-09
2.97956e-06
8.33565e-09
2.97418e-06
8.60077e-09
2.96868e-06
8.86747e-09
2.96305e-06
9.12037e-09
2.9573e-06
9.37545e-09
2.95144e-06
9.61712e-09
2.94545e-06
9.86171e-09
2.93936e-06
1.00934e-08
2.93314e-06
1.03286e-08
2.92682e-06
1.05513e-08
2.92038e-06
1.07781e-08
2.91383e-06
1.09927e-08
2.90717e-06
1.12121e-08
2.90041e-06
1.14195e-08
2.89353e-06
1.16322e-08
2.88656e-06
1.18333e-08
2.87947e-06
1.20401e-08
2.87228e-06
1.22357e-08
2.86499e-06
1.24373e-08
2.8576e-06
1.26281e-08
2.8501e-06
1.28252e-08
2.84251e-06
1.30117e-08
2.83481e-06
1.32049e-08
2.82701e-06
1.33877e-08
2.81912e-06
1.35774e-08
2.81113e-06
1.37571e-08
2.80303e-06
1.39438e-08
2.79485e-06
1.41207e-08
2.78656e-06
1.43048e-08
2.77818e-06
1.44793e-08
2.7697e-06
1.46612e-08
2.76113e-06
1.48337e-08
2.75246e-06
1.50136e-08
2.7437e-06
1.51843e-08
2.73484e-06
1.53625e-08
2.72589e-06
1.55317e-08
2.71685e-06
1.57086e-08
2.70771e-06
1.58765e-08
2.69848e-06
1.60523e-08
2.68915e-06
1.62188e-08
2.67974e-06
1.63939e-08
2.67023e-06
1.65578e-08
2.66063e-06
1.67323e-08
2.65094e-06
1.68913e-08
2.64116e-06
1.70565e-08
2.63129e-06
1.72266e-08
2.62133e-06
1.73992e-08
2.61128e-06
1.75626e-08
2.60113e-06
1.77348e-08
2.5909e-06
1.78963e-08
2.58057e-06
1.80657e-08
2.57016e-06
1.82265e-08
2.55966e-06
1.83949e-08
2.54906e-06
1.85551e-08
2.53838e-06
1.87225e-08
2.52762e-06
1.88819e-08
2.51676e-06
1.90483e-08
2.50582e-06
1.9207e-08
2.49478e-06
1.93725e-08
2.48367e-06
1.95303e-08
2.47246e-06
1.96947e-08
2.46117e-06
1.98516e-08
2.44979e-06
2.00148e-08
2.43833e-06
2.01707e-08
2.42678e-06
2.03326e-08
2.41515e-06
2.04875e-08
2.40343e-06
2.06479e-08
2.39163e-06
2.08016e-08
2.37975e-06
2.09604e-08
2.36779e-06
2.11128e-08
2.35574e-06
2.12698e-08
2.34361e-06
2.14208e-08
2.3314e-06
2.15756e-08
2.31911e-06
2.17251e-08
2.30674e-06
2.18771e-08
2.2943e-06
2.20254e-08
2.28177e-06
2.21744e-08
2.26917e-06
2.23216e-08
2.25649e-06
2.24679e-08
2.24374e-06
2.26128e-08
2.23091e-06
2.27562e-08
2.21801e-06
2.28985e-08
2.20503e-06
2.30392e-08
2.19199e-06
2.31779e-08
2.17887e-06
2.33149e-08
2.16568e-06
2.34501e-08
2.15243e-06
2.3583e-08
2.13911e-06
2.37149e-08
2.12572e-06
2.38438e-08
2.11227e-06
2.39712e-08
2.09876e-06
2.40971e-08
2.08519e-06
2.42169e-08
2.07156e-06
2.43362e-08
2.05787e-06
2.44564e-08
2.04412e-06
2.45729e-08
2.03031e-06
2.46852e-08
2.01645e-06
2.47953e-08
2.00254e-06
2.49018e-08
1.98858e-06
2.50057e-08
1.97457e-06
2.5106e-08
1.96052e-06
2.52036e-08
1.94642e-06
2.52974e-08
1.93228e-06
2.53883e-08
1.91809e-06
2.54751e-08
1.90387e-06
2.55588e-08
1.88962e-06
2.56382e-08
1.87532e-06
2.57144e-08
1.861e-06
2.5786e-08
1.84665e-06
2.58542e-08
1.83227e-06
2.59176e-08
1.81786e-06
2.59773e-08
1.80344e-06
2.60322e-08
1.78899e-06
2.60832e-08
1.77453e-06
2.61291e-08
1.76005e-06
2.61709e-08
1.74555e-06
2.62074e-08
1.73105e-06
2.62396e-08
1.71654e-06
2.62663e-08
1.70203e-06
2.62885e-08
1.68752e-06
2.63052e-08
1.67301e-06
2.63172e-08
1.6585e-06
2.63236e-08
1.644e-06
2.63251e-08
1.6295e-06
2.63209e-08
1.61503e-06
2.63117e-08
1.60056e-06
2.62967e-08
1.58612e-06
2.62765e-08
1.5717e-06
2.62506e-08
1.5573e-06
2.62193e-08
1.54293e-06
2.61822e-08
1.52859e-06
2.61398e-08
1.51428e-06
2.60913e-08
1.50001e-06
2.60378e-08
1.48578e-06
2.59772e-08
1.4716e-06
2.59131e-08
1.45746e-06
2.58408e-08
1.44336e-06
2.5766e-08
1.42932e-06
2.56843e-08
1.41534e-06
2.55907e-08
1.40141e-06
2.54991e-08
1.38754e-06
2.54023e-08
1.37373e-06
2.5298e-08
1.36e-06
2.5188e-08
1.34632e-06
2.50724e-08
1.33273e-06
2.49515e-08
1.3192e-06
2.48253e-08
1.30576e-06
2.46938e-08
1.29239e-06
2.45572e-08
1.27911e-06
2.44157e-08
1.26591e-06
2.42692e-08
1.2528e-06
2.4118e-08
1.23978e-06
2.39619e-08
1.22685e-06
2.38015e-08
1.21401e-06
2.36363e-08
1.20128e-06
2.34672e-08
1.18864e-06
2.32936e-08
1.17611e-06
2.31164e-08
1.16367e-06
2.29347e-08
1.15134e-06
2.27502e-08
1.13912e-06
2.25612e-08
1.12701e-06
2.23703e-08
1.11501e-06
2.21744e-08
1.10312e-06
2.19785e-08
1.09134e-06
2.17763e-08
1.07967e-06
2.15773e-08
1.06812e-06
2.13694e-08
1.05669e-06
2.11705e-08
1.04537e-06
2.09603e-08
1.03416e-06
2.07674e-08
1.02306e-06
2.05707e-08
1.01207e-06
2.04597e-08
1.00116e-06
2.04923e-08
9.90318e-07
2.06208e-08
9.79524e-07
2.0719e-08
9.68768e-07
2.07571e-08
9.5806e-07
2.07849e-08
9.474e-07
2.07537e-08
9.36799e-07
2.06898e-08
9.26264e-07
2.05872e-08
9.15805e-07
2.04615e-08
9.05428e-07
2.0317e-08
8.95139e-07
2.0159e-08
8.84944e-07
1.99868e-08
8.74844e-07
1.98077e-08
8.64846e-07
1.96176e-08
8.54952e-07
1.94179e-08
8.45162e-07
1.9219e-08
8.3548e-07
1.90132e-08
8.25907e-07
1.88029e-08
8.16445e-07
1.8589e-08
8.07096e-07
1.83725e-08
7.97859e-07
1.81538e-08
7.88736e-07
1.79332e-08
7.79728e-07
1.77114e-08
7.70834e-07
1.74886e-08
7.62055e-07
1.72653e-08
7.53391e-07
1.70416e-08
7.44841e-07
1.68178e-08
7.36407e-07
1.65942e-08
7.28087e-07
1.63709e-08
7.19881e-07
1.61481e-08
7.11789e-07
1.59261e-08
7.0381e-07
1.57049e-08
6.95943e-07
1.54848e-08
6.88189e-07
1.52659e-08
6.80545e-07
1.50484e-08
6.73012e-07
1.48321e-08
6.65588e-07
1.46176e-08
6.58272e-07
1.44046e-08
6.51064e-07
1.41937e-08
6.43963e-07
1.39844e-08
6.36966e-07
1.37775e-08
6.30074e-07
1.35723e-08
6.23285e-07
1.33698e-08
6.16598e-07
1.3169e-08
6.10011e-07
1.29716e-08
6.03523e-07
1.27758e-08
5.97132e-07
1.25845e-08
5.90837e-07
1.23949e-08
5.84634e-07
1.22108e-08
5.78524e-07
1.20307e-08
5.72501e-07
1.18541e-08
5.66562e-07
1.16942e-08
5.60706e-07
1.15207e-08
5.54913e-07
1.141e-08
5.49198e-07
1.12396e-08
5.43511e-07
1.12116e-08
5.37881e-07
1.10497e-08
5.32193e-07
1.12952e-08
5.26588e-07
1.08265e-08
5.20519e-07
1.25608e-08
5.14528e-07
1.04263e-08
1.99878e-08
5.87993e-06
-3.72953e-07
-5.92889e-06
5.75031e-06
-5.26038e-07
5.59885e-06
-6.13465e-07
5.50143e-06
-6.01673e-07
5.47762e-06
-5.19074e-07
5.48813e-06
-4.2988e-07
5.51361e-06
-3.53453e-07
5.54527e-06
-2.90511e-07
5.57859e-06
-2.38032e-07
5.61019e-06
-1.95857e-07
5.63855e-06
-1.6257e-07
5.66325e-06
-1.36043e-07
5.68429e-06
-1.14656e-07
5.70188e-06
-9.72966e-08
5.71633e-06
-8.30872e-08
5.728e-06
-7.13467e-08
5.73719e-06
-6.15315e-08
5.74423e-06
-5.32725e-08
5.74936e-06
-4.62398e-08
5.75285e-06
-4.02448e-08
5.75487e-06
-3.50137e-08
5.75565e-06
-3.05521e-08
5.75521e-06
-2.64397e-08
5.75384e-06
-2.3059e-08
5.75144e-06
-1.96687e-08
5.74844e-06
-1.71371e-08
5.74461e-06
-1.43749e-08
5.74034e-06
-1.23326e-08
5.73543e-06
-1.00887e-08
5.73016e-06
-8.36925e-09
5.72439e-06
-6.51807e-09
5.71832e-06
-5.04003e-09
5.71184e-06
-3.4834e-09
5.70511e-06
-2.19507e-09
5.69806e-06
-8.62535e-10
5.69078e-06
2.69288e-10
5.68326e-06
1.42498e-09
5.67552e-06
2.43303e-09
5.66758e-06
3.46398e-09
5.65945e-06
4.3919e-09
5.65115e-06
5.31763e-09
5.64265e-06
6.14912e-09
5.634e-06
6.97539e-09
5.62517e-06
7.7325e-09
5.61619e-06
8.48443e-09
5.60704e-06
9.18301e-09
5.59773e-06
9.87456e-09
5.58827e-06
1.05213e-08
5.57865e-06
1.11635e-08
5.56888e-06
1.1771e-08
5.55898e-06
1.23763e-08
5.54895e-06
1.29649e-08
5.53879e-06
1.35304e-08
5.52849e-06
1.40648e-08
5.51806e-06
1.4586e-08
5.5075e-06
1.50901e-08
5.4968e-06
1.55855e-08
5.48599e-06
1.60673e-08
5.47504e-06
1.65395e-08
5.46397e-06
1.70016e-08
5.45277e-06
1.74455e-08
5.44146e-06
1.78788e-08
5.43001e-06
1.83236e-08
5.41845e-06
1.87542e-08
5.40675e-06
1.91758e-08
5.39494e-06
1.95946e-08
5.38299e-06
2.00017e-08
5.37092e-06
2.04042e-08
5.35872e-06
2.0799e-08
5.3464e-06
2.11899e-08
5.33395e-06
2.15739e-08
5.32137e-06
2.19543e-08
5.30866e-06
2.23284e-08
5.29582e-06
2.26996e-08
5.28285e-06
2.30651e-08
5.26975e-06
2.34283e-08
5.25651e-06
2.37863e-08
5.24315e-06
2.41423e-08
5.22965e-06
2.44936e-08
5.21602e-06
2.48434e-08
5.20225e-06
2.51888e-08
5.18835e-06
2.55331e-08
5.17431e-06
2.58733e-08
5.16013e-06
2.62129e-08
5.14582e-06
2.65487e-08
5.13137e-06
2.68842e-08
5.11679e-06
2.72161e-08
5.10206e-06
2.75481e-08
5.0872e-06
2.78767e-08
5.0722e-06
2.82058e-08
5.05705e-06
2.85316e-08
5.04177e-06
2.88582e-08
5.02635e-06
2.91816e-08
5.01079e-06
2.95061e-08
4.99508e-06
2.98276e-08
4.97923e-06
3.01503e-08
4.96324e-06
3.04701e-08
4.94711e-06
3.07914e-08
4.93084e-06
3.11097e-08
4.91442e-06
3.14298e-08
4.89786e-06
3.1747e-08
4.88115e-06
3.20662e-08
4.8643e-06
3.23824e-08
4.84731e-06
3.27008e-08
4.83017e-06
3.30163e-08
4.81289e-06
3.3334e-08
4.79546e-06
3.36487e-08
4.77789e-06
3.3966e-08
4.76017e-06
3.42787e-08
4.7423e-06
3.45956e-08
4.72429e-06
3.49025e-08
4.70614e-06
3.52112e-08
4.68784e-06
3.55278e-08
4.66939e-06
3.58438e-08
4.6508e-06
3.61573e-08
4.63206e-06
3.64739e-08
4.61317e-06
3.67844e-08
4.59414e-06
3.70974e-08
4.57496e-06
3.74069e-08
4.55563e-06
3.77189e-08
4.53616e-06
3.80274e-08
4.51655e-06
3.83381e-08
4.49678e-06
3.86453e-08
4.47688e-06
3.89546e-08
4.45682e-06
3.92605e-08
4.43663e-06
3.95683e-08
4.41629e-06
3.98725e-08
4.3958e-06
4.01785e-08
4.37517e-06
4.04808e-08
4.3544e-06
4.07847e-08
4.33349e-06
4.10849e-08
4.31243e-06
4.13863e-08
4.29124e-06
4.16841e-08
4.2699e-06
4.19827e-08
4.24843e-06
4.22778e-08
4.22681e-06
4.25733e-08
4.20506e-06
4.28652e-08
4.18317e-06
4.31572e-08
4.16115e-06
4.34457e-08
4.13899e-06
4.37336e-08
4.1167e-06
4.40182e-08
4.09427e-06
4.43011e-08
4.07172e-06
4.45821e-08
4.04903e-06
4.48608e-08
4.02622e-06
4.51359e-08
4.00328e-06
4.54089e-08
3.98021e-06
4.56783e-08
3.95702e-06
4.59453e-08
3.93371e-06
4.62087e-08
3.91028e-06
4.64694e-08
3.88673e-06
4.67259e-08
3.86307e-06
4.69789e-08
3.83929e-06
4.72279e-08
3.8154e-06
4.74725e-08
3.7914e-06
4.77138e-08
3.7673e-06
4.79496e-08
3.74309e-06
4.81824e-08
3.71877e-06
4.84102e-08
3.69436e-06
4.86265e-08
3.66986e-06
4.88442e-08
3.64525e-06
4.90601e-08
3.62056e-06
4.92684e-08
3.59577e-06
4.94694e-08
3.5709e-06
4.96652e-08
3.54595e-06
4.98542e-08
3.52092e-06
5.00375e-08
3.49581e-06
5.02138e-08
3.47063e-06
5.03841e-08
3.44538e-06
5.05471e-08
3.42006e-06
5.07037e-08
3.39469e-06
5.08525e-08
3.36925e-06
5.09946e-08
3.34376e-06
5.11285e-08
3.31822e-06
5.12554e-08
3.29263e-06
5.13737e-08
3.267e-06
5.14845e-08
3.24133e-06
5.15865e-08
3.21563e-06
5.16806e-08
3.1899e-06
5.17655e-08
3.16414e-06
5.18423e-08
3.13836e-06
5.19096e-08
3.11256e-06
5.19681e-08
3.08675e-06
5.20167e-08
3.06093e-06
5.20564e-08
3.03511e-06
5.20859e-08
3.0093e-06
5.21062e-08
2.98349e-06
5.21163e-08
2.95769e-06
5.21168e-08
2.9319e-06
5.21067e-08
2.90614e-06
5.20869e-08
2.88041e-06
5.20564e-08
2.8547e-06
5.20159e-08
2.82903e-06
5.19645e-08
2.80341e-06
5.19029e-08
2.77783e-06
5.18304e-08
2.7523e-06
5.17474e-08
2.72683e-06
5.16534e-08
2.70142e-06
5.1549e-08
2.67608e-06
5.14333e-08
2.65081e-06
5.13072e-08
2.62562e-06
5.1169e-08
2.60051e-06
5.10223e-08
2.57549e-06
5.08618e-08
2.55056e-06
5.06948e-08
2.52573e-06
5.05131e-08
2.501e-06
5.0315e-08
2.47639e-06
5.0117e-08
2.45188e-06
4.99072e-08
2.4275e-06
4.96845e-08
2.40323e-06
4.94512e-08
2.3791e-06
4.92075e-08
2.35509e-06
4.89536e-08
2.33123e-06
4.86896e-08
2.30751e-06
4.84158e-08
2.28393e-06
4.81323e-08
2.26051e-06
4.78394e-08
2.23724e-06
4.75371e-08
2.21413e-06
4.72258e-08
2.19119e-06
4.69056e-08
2.16842e-06
4.65769e-08
2.14581e-06
4.62396e-08
2.12338e-06
4.58946e-08
2.10114e-06
4.55413e-08
2.07907e-06
4.5181e-08
2.05719e-06
4.48128e-08
2.03551e-06
4.44387e-08
2.01401e-06
4.40567e-08
1.99271e-06
4.36703e-08
1.97161e-06
4.3276e-08
1.95071e-06
4.28794e-08
1.93001e-06
4.24743e-08
1.90952e-06
4.20704e-08
1.88923e-06
4.1657e-08
1.86915e-06
4.12497e-08
1.84927e-06
4.08351e-08
1.82961e-06
4.04328e-08
1.81014e-06
4.00448e-08
1.79087e-06
3.97202e-08
1.77183e-06
3.95325e-08
1.75302e-06
3.94385e-08
1.7344e-06
3.93364e-08
1.71595e-06
3.92028e-08
1.69768e-06
3.90557e-08
1.67957e-06
3.88655e-08
1.66162e-06
3.8641e-08
1.64383e-06
3.8378e-08
1.6262e-06
3.8088e-08
1.60874e-06
3.77749e-08
1.59146e-06
3.74442e-08
1.57435e-06
3.7095e-08
1.55742e-06
3.6736e-08
1.54068e-06
3.63613e-08
1.52412e-06
3.59749e-08
1.50775e-06
3.55881e-08
1.49158e-06
3.51911e-08
1.47559e-06
3.47878e-08
1.4598e-06
3.43795e-08
1.44421e-06
3.39673e-08
1.42881e-06
3.35519e-08
1.41361e-06
3.3134e-08
1.3986e-06
3.27143e-08
1.3838e-06
3.22934e-08
1.36919e-06
3.1872e-08
1.35478e-06
3.14503e-08
1.34057e-06
3.10289e-08
1.32656e-06
3.06079e-08
1.31274e-06
3.01881e-08
1.29912e-06
2.97694e-08
1.28569e-06
2.93525e-08
1.27246e-06
2.89373e-08
1.25942e-06
2.85245e-08
1.24657e-06
2.81139e-08
1.23392e-06
2.77063e-08
1.22145e-06
2.73012e-08
1.20916e-06
2.68996e-08
1.19707e-06
2.65009e-08
1.18516e-06
2.61065e-08
1.17342e-06
2.57149e-08
1.16187e-06
2.53283e-08
1.1505e-06
2.49444e-08
1.13931e-06
2.45664e-08
1.12828e-06
2.41911e-08
1.11743e-06
2.3823e-08
1.10675e-06
2.34571e-08
1.09623e-06
2.31006e-08
1.08588e-06
2.27463e-08
1.07569e-06
2.24034e-08
1.06565e-06
2.20663e-08
1.05577e-06
2.17383e-08
1.04603e-06
2.14345e-08
1.03643e-06
2.11189e-08
1.02695e-06
2.08887e-08
1.0176e-06
2.05908e-08
1.00831e-06
2.04994e-08
9.99134e-07
2.023e-08
9.89886e-07
2.05435e-08
9.80775e-07
1.99379e-08
9.7101e-07
2.23249e-08
9.61496e-07
1.99411e-08
3.25385e-08
6.51795e-06
-3.2673e-07
-6.56418e-06
6.41263e-06
-4.20714e-07
6.28093e-06
-4.81766e-07
6.16435e-06
-4.85088e-07
6.08824e-06
-4.42968e-07
6.04334e-06
-3.84982e-07
6.01925e-06
-3.2936e-07
6.00832e-06
-2.79579e-07
6.00578e-06
-2.35496e-07
6.0077e-06
-1.97776e-07
6.01146e-06
-1.66324e-07
6.0156e-06
-1.40191e-07
6.01935e-06
-1.18403e-07
6.02225e-06
-1.00197e-07
6.02409e-06
-8.49279e-08
6.0248e-06
-7.20532e-08
6.02438e-06
-6.11151e-08
6.02289e-06
-5.17757e-08
6.02038e-06
-4.37323e-08
6.01692e-06
-3.6787e-08
6.0126e-06
-3.06923e-08
6.00746e-06
-2.54168e-08
6.00163e-06
-2.06039e-08
5.99516e-06
-1.65955e-08
5.98817e-06
-1.26764e-08
5.9806e-06
-9.56338e-09
5.97261e-06
-6.38877e-09
5.96415e-06
-3.87536e-09
5.95535e-06
-1.28378e-09
5.94617e-06
8.07665e-10
5.9367e-06
2.95117e-09
5.92694e-06
4.72624e-09
5.91693e-06
6.52771e-09
5.90667e-06
8.05746e-09
5.89622e-06
9.59514e-09
5.88555e-06
1.09318e-08
5.87471e-06
1.2265e-08
5.8637e-06
1.34465e-08
5.85254e-06
1.46189e-08
5.84125e-06
1.56823e-08
5.82985e-06
1.67263e-08
5.81832e-06
1.76785e-08
5.80668e-06
1.86078e-08
5.79495e-06
1.94696e-08
5.78312e-06
2.03118e-08
5.7712e-06
2.11026e-08
5.7592e-06
2.18751e-08
5.74711e-06
2.26079e-08
5.73495e-06
2.33253e-08
5.72271e-06
2.40134e-08
5.7104e-06
2.46881e-08
5.69802e-06
2.53442e-08
5.68557e-06
2.59802e-08
5.67304e-06
2.65904e-08
5.66044e-06
2.71832e-08
5.64777e-06
2.77604e-08
5.63503e-06
2.83268e-08
5.62222e-06
2.88806e-08
5.60933e-06
2.94245e-08
5.59638e-06
2.99581e-08
5.58335e-06
3.04771e-08
5.57024e-06
3.09904e-08
5.55706e-06
3.15028e-08
5.5438e-06
3.20063e-08
5.53047e-06
3.25078e-08
5.51706e-06
3.30046e-08
5.50357e-06
3.34925e-08
5.49e-06
3.39761e-08
5.47634e-06
3.44543e-08
5.4626e-06
3.49295e-08
5.44878e-06
3.53999e-08
5.43487e-06
3.58678e-08
5.42086e-06
3.63316e-08
5.40677e-06
3.67935e-08
5.39258e-06
3.72524e-08
5.3783e-06
3.77094e-08
5.36392e-06
3.81641e-08
5.34945e-06
3.86172e-08
5.33487e-06
3.90686e-08
5.3202e-06
3.95185e-08
5.30542e-06
3.99673e-08
5.29054e-06
4.04149e-08
5.27555e-06
4.08617e-08
5.26045e-06
4.13075e-08
5.24525e-06
4.17529e-08
5.22994e-06
4.21976e-08
5.21451e-06
4.26421e-08
5.19897e-06
4.30861e-08
5.18332e-06
4.35301e-08
5.16755e-06
4.39738e-08
5.15166e-06
4.44177e-08
5.13566e-06
4.48614e-08
5.11954e-06
4.53056e-08
5.10329e-06
4.57496e-08
5.08693e-06
4.61942e-08
5.07044e-06
4.66388e-08
5.05382e-06
4.7084e-08
5.03709e-06
4.75293e-08
5.02022e-06
4.79752e-08
5.00323e-06
4.84214e-08
4.98611e-06
4.88683e-08
4.96886e-06
4.93154e-08
4.95148e-06
4.97632e-08
4.93397e-06
5.02113e-08
4.91632e-06
5.06601e-08
4.89855e-06
5.11092e-08
4.88064e-06
5.15588e-08
4.8626e-06
5.20087e-08
4.84442e-06
5.24583e-08
4.8261e-06
5.29086e-08
4.80765e-06
5.33537e-08
4.78906e-06
5.37994e-08
4.77034e-06
5.42517e-08
4.75148e-06
5.47042e-08
4.73248e-06
5.51589e-08
4.71334e-06
5.56133e-08
4.69406e-06
5.60648e-08
4.67464e-06
5.65162e-08
4.65508e-06
5.69671e-08
4.63538e-06
5.7418e-08
4.61554e-06
5.78682e-08
4.59556e-06
5.83183e-08
4.57544e-06
5.87675e-08
4.55518e-06
5.92164e-08
4.53477e-06
5.96642e-08
4.51423e-06
6.01115e-08
4.49354e-06
6.05575e-08
4.47272e-06
6.10028e-08
4.45175e-06
6.14465e-08
4.43065e-06
6.18892e-08
4.4094e-06
6.23301e-08
4.38802e-06
6.27697e-08
4.3665e-06
6.32072e-08
4.34484e-06
6.36432e-08
4.32304e-06
6.40768e-08
4.3011e-06
6.45085e-08
4.27903e-06
6.49375e-08
4.25682e-06
6.53643e-08
4.23448e-06
6.57882e-08
4.21201e-06
6.62094e-08
4.1894e-06
6.66274e-08
4.16665e-06
6.70425e-08
4.14378e-06
6.74534e-08
4.12078e-06
6.78613e-08
4.09765e-06
6.82643e-08
4.0744e-06
6.86637e-08
4.05102e-06
6.90579e-08
4.02752e-06
6.94483e-08
4.00389e-06
6.98333e-08
3.98015e-06
7.02137e-08
3.95629e-06
7.05884e-08
3.93231e-06
7.09576e-08
3.90821e-06
7.13207e-08
3.88401e-06
7.16774e-08
3.85969e-06
7.20286e-08
3.83527e-06
7.23718e-08
3.81074e-06
7.27103e-08
3.78612e-06
7.30395e-08
3.76139e-06
7.33556e-08
3.73656e-06
7.36724e-08
3.71163e-06
7.39836e-08
3.68662e-06
7.4284e-08
3.66151e-06
7.45745e-08
3.63632e-06
7.48564e-08
3.61105e-06
7.51288e-08
3.58569e-06
7.5392e-08
3.56026e-06
7.56451e-08
3.53476e-06
7.58887e-08
3.50918e-06
7.61217e-08
3.48354e-06
7.63445e-08
3.45784e-06
7.65562e-08
3.43208e-06
7.67572e-08
3.40626e-06
7.69465e-08
3.38039e-06
7.71245e-08
3.35447e-06
7.72903e-08
3.32851e-06
7.74443e-08
3.30251e-06
7.75855e-08
3.27648e-06
7.77144e-08
3.25041e-06
7.783e-08
3.22432e-06
7.7933e-08
3.19821e-06
7.80219e-08
3.17208e-06
7.80973e-08
3.14594e-06
7.81585e-08
3.11979e-06
7.8206e-08
3.09364e-06
7.82389e-08
3.06749e-06
7.82576e-08
3.04134e-06
7.82614e-08
3.01521e-06
7.82507e-08
2.98909e-06
7.82246e-08
2.96299e-06
7.81837e-08
2.93692e-06
7.81272e-08
2.91088e-06
7.80554e-08
2.88488e-06
7.79679e-08
2.85892e-06
7.78648e-08
2.833e-06
7.77458e-08
2.80714e-06
7.7611e-08
2.78133e-06
7.74602e-08
2.75559e-06
7.72936e-08
2.72991e-06
7.71106e-08
2.70431e-06
7.69118e-08
2.67878e-06
7.6696e-08
2.65333e-06
7.6466e-08
2.62798e-06
7.62172e-08
2.60272e-06
7.59565e-08
2.57756e-06
7.56745e-08
2.5525e-06
7.5373e-08
2.52755e-06
7.50669e-08
2.50271e-06
7.47427e-08
2.478e-06
7.44008e-08
2.4534e-06
7.40433e-08
2.42894e-06
7.36705e-08
2.40461e-06
7.32826e-08
2.38042e-06
7.28798e-08
2.35638e-06
7.24626e-08
2.33248e-06
7.2031e-08
2.30873e-06
7.15854e-08
2.28514e-06
7.1126e-08
2.26171e-06
7.06534e-08
2.23845e-06
7.01674e-08
2.21536e-06
6.9669e-08
2.19244e-06
6.91579e-08
2.1697e-06
6.86353e-08
2.14714e-06
6.81006e-08
2.12477e-06
6.75553e-08
2.10258e-06
6.69987e-08
2.08059e-06
6.64328e-08
2.05879e-06
6.5856e-08
2.03719e-06
6.52718e-08
2.01579e-06
6.46771e-08
1.99459e-06
6.40772e-08
1.9736e-06
6.34671e-08
1.95281e-06
6.28553e-08
1.93223e-06
6.22338e-08
1.91187e-06
6.16155e-08
1.89171e-06
6.09923e-08
1.87177e-06
6.03788e-08
1.85202e-06
5.97873e-08
1.8325e-06
5.92469e-08
1.8132e-06
5.88289e-08
1.79414e-06
5.84932e-08
1.77532e-06
5.81613e-08
1.75671e-06
5.78159e-08
1.7383e-06
5.74589e-08
1.7201e-06
5.70718e-08
1.70208e-06
5.66541e-08
1.68426e-06
5.62023e-08
1.66662e-06
5.57242e-08
1.64918e-06
5.52226e-08
1.63192e-06
5.4702e-08
1.61485e-06
5.4162e-08
1.59798e-06
5.36103e-08
1.5813e-06
5.30411e-08
1.56481e-06
5.24598e-08
1.54852e-06
5.18768e-08
1.53243e-06
5.1282e-08
1.51654e-06
5.06801e-08
1.50085e-06
5.00724e-08
1.48535e-06
4.94602e-08
1.47006e-06
4.88444e-08
1.45497e-06
4.82258e-08
1.44008e-06
4.76054e-08
1.42539e-06
4.69839e-08
1.4109e-06
4.6362e-08
1.39661e-06
4.57402e-08
1.38252e-06
4.51192e-08
1.36863e-06
4.44993e-08
1.35493e-06
4.38813e-08
1.34144e-06
4.32652e-08
1.32814e-06
4.2652e-08
1.31503e-06
4.20416e-08
1.30212e-06
4.14349e-08
1.28941e-06
4.08316e-08
1.27688e-06
4.02329e-08
1.26454e-06
3.96379e-08
1.25239e-06
3.90483e-08
1.24043e-06
3.84629e-08
1.22865e-06
3.78839e-08
1.21706e-06
3.73091e-08
1.20565e-06
3.67417e-08
1.19441e-06
3.61783e-08
1.18336e-06
3.56238e-08
1.17247e-06
3.5073e-08
1.16176e-06
3.4533e-08
1.15122e-06
3.39962e-08
1.14085e-06
3.34731e-08
1.13065e-06
3.29531e-08
1.1206e-06
3.245e-08
1.11071e-06
3.19543e-08
1.10097e-06
3.14741e-08
1.09139e-06
3.10223e-08
1.08194e-06
3.05663e-08
1.07262e-06
3.02065e-08
1.06343e-06
2.97858e-08
1.05432e-06
2.96099e-08
1.0453e-06
2.92477e-08
1.03628e-06
2.95631e-08
1.02729e-06
2.89269e-08
1.01801e-06
3.16081e-08
1.00841e-06
2.95396e-08
4.30431e-08
6.55533e-06
-2.84727e-07
-6.59733e-06
6.47366e-06
-3.39041e-07
6.37394e-06
-3.82048e-07
6.27945e-06
-3.906e-07
6.20647e-06
-3.69984e-07
6.15596e-06
-3.34476e-07
6.12224e-06
-2.95635e-07
6.10031e-06
-2.57652e-07
6.08676e-06
-2.21947e-07
6.07868e-06
-1.89691e-07
6.0738e-06
-1.61444e-07
6.07064e-06
-1.37039e-07
6.06828e-06
-1.1604e-07
6.0661e-06
-9.80114e-08
6.06371e-06
-8.25394e-08
6.06089e-06
-6.92369e-08