/*--------------------------------*- C++ -*----------------------------------*\
| =========                 |                                                 |
| \\      /  F ield         | OpenFOAM: The Open Source CFD Toolbox           |
|  \\    /   O peration     | Version:  v2012                                 |
|   \\  /    A nd           | Website:  www.openfoam.com                      |
|    \\/     M anipulation  |                                                 |
\*---------------------------------------------------------------------------*/
FoamFile
{
    version     2.0;
    format      ascii;
    class       volVectorField;
    location    "4000";
    object      U;
}
// * * * * * * * * * * * * * * * * * * * * * * * * * * * * * * * * * * * * * //

dimensions      [0 1 -1 0 0 0 0];


internalField   nonuniform List<vector> 
23800
(
(-0.174475 -1.37519e-16 0.0388958)
(-0.157185 -1.1354e-16 -0.0383806)
(-0.0209783 -1.0897e-16 -0.0720563)
(0.0645556 -6.05597e-17 -0.0735353)
(0.143207 -2.73986e-17 -0.049956)
(0.228123 -1.8613e-17 -0.0341655)
(0.30093 -1.68457e-17 -0.0246198)
(0.349271 -1.57782e-17 -0.0184933)
(0.385242 -1.53436e-17 -0.0140887)
(0.414424 -1.53188e-17 -0.0110265)
(0.438159 -1.54475e-17 -0.00889024)
(0.457517 -1.56127e-17 -0.00734366)
(0.473623 -1.5789e-17 -0.00618254)
(0.487302 -1.59674e-17 -0.0052896)
(0.499065 -1.61405e-17 -0.0045832)
(0.50929 -1.6304e-17 -0.00401455)
(0.518263 -1.64584e-17 -0.00354195)
(0.526207 -1.66031e-17 -0.00314613)
(0.53329 -1.67398e-17 -0.00281017)
(0.539646 -1.68687e-17 -0.00252025)
(0.545381 -1.69915e-17 -0.0022699)
(0.550576 -1.71084e-17 -0.00204906)
(0.555304 -1.72207e-17 -0.00185657)
(0.559616 -1.73291e-17 -0.00168569)
(0.563563 -1.74342e-17 -0.00153094)
(0.567176 -1.75365e-17 -0.00139415)
(0.570496 -1.76365e-17 -0.00126862)
(0.57354 -1.77348e-17 -0.00115758)
(0.576342 -1.78314e-17 -0.00105617)
(0.578911 -1.79271e-17 -0.000965328)
(0.581278 -1.80218e-17 -0.000882538)
(0.583446 -1.81161e-17 -0.000807172)
(0.58544 -1.82098e-17 -0.000738842)
(0.587262 -1.83037e-17 -0.000675426)
(0.588935 -1.83973e-17 -0.000618509)
(0.590454 -1.84913e-17 -0.0005644)
(0.591845 -1.85855e-17 -0.000516241)
(0.593096 -1.86801e-17 -0.00047045)
(0.594237 -1.87752e-17 -0.000429559)
(0.595254 -1.88707e-17 -0.000394062)
(0.596173 -1.89672e-17 -0.000361147)
(0.596976 -1.90644e-17 -0.000326208)
(0.597692 -1.91624e-17 -0.00029604)
(0.5983 -1.9261e-17 -0.000264806)
(0.598833 -1.93603e-17 -0.000237377)
(0.599266 -1.94604e-17 -0.000210597)
(0.599633 -1.95613e-17 -0.000185322)
(0.599906 -1.96627e-17 -0.000163106)
(0.600126 -1.97649e-17 -0.000138425)
(0.600252 -1.98675e-17 -0.000123427)
(0.600334 -3.64194e-17 -9.79562e-05)
(0.600342 -1.36825e-17 -7.73917e-05)
(0.600246 -3.24126e-17 -5.70066e-05)
(0.600172 -1.4676e-17 -4.4981e-05)
(0.599947 -2.80368e-17 -2.96743e-05)
(0.599783 -1.61088e-17 -1.92149e-05)
(0.599447 -2.63033e-17 -5.76152e-06)
(0.599193 -1.70285e-17 3.98788e-06)
(0.598753 -2.55138e-17 1.63046e-05)
(0.598414 -1.76839e-17 2.52823e-05)
(0.597875 -2.50135e-17 3.63715e-05)
(0.597447 -1.82579e-17 4.42583e-05)
(0.596838 -2.41676e-17 5.45337e-05)
(0.596311 -1.90849e-17 6.28066e-05)
(0.595618 -2.41117e-17 7.17818e-05)
(0.59502 -1.94824e-17 7.89216e-05)
(0.594244 -2.41594e-17 8.72407e-05)
(0.593572 -1.98224e-17 9.35112e-05)
(0.592723 -2.41359e-17 0.000101001)
(0.59198 -2.02182e-17 0.000106583)
(0.591064 -2.41384e-17 0.000113279)
(0.590252 -2.06049e-17 0.000118238)
(0.589274 -2.41717e-17 0.000124213)
(0.588397 -2.09765e-17 0.000128616)
(0.587361 -2.42328e-17 0.000133952)
(0.586422 -2.13327e-17 0.000137866)
(0.585331 -2.4317e-17 0.00014264)
(0.584333 -2.16747e-17 0.000146127)
(0.58319 -2.44201e-17 0.000150412)
(0.582136 -2.20041e-17 0.000153528)
(0.580943 -2.45388e-17 0.000157387)
(0.579835 -2.2322e-17 0.000160184)
(0.578594 -2.46703e-17 0.000163676)
(0.577435 -2.26293e-17 0.000166199)
(0.576149 -2.48122e-17 0.000169376)
(0.57494 -2.29268e-17 0.000171667)
(0.57361 -2.49625e-17 0.000174574)
(0.572353 -2.32151e-17 0.000176667)
(0.57098 -2.51194e-17 0.000179344)
(0.569677 -2.34948e-17 0.00018127)
(0.568262 -2.52813e-17 0.000183752)
(0.566914 -2.37664e-17 0.000185534)
(0.565457 -2.54468e-17 0.000187849)
(0.564065 -2.40301e-17 0.000189509)
(0.562569 -2.56145e-17 0.000191681)
(0.561134 -2.42863e-17 0.000193237)
(0.559598 -2.57834e-17 0.000195286)
(0.558121 -2.4535e-17 0.000196752)
(0.556546 -2.59526e-17 0.000198697)
(0.555027 -2.47764e-17 0.000200087)
(0.553414 -2.61213e-17 0.000201942)
(0.551855 -2.501e-17 0.000203268)
(0.550203 -2.62895e-17 0.000205046)
(0.548603 -2.52353e-17 0.000206319)
(0.546914 -2.64586e-17 0.000208033)
(0.545274 -2.54499e-17 0.000209265)
(0.543546 -2.66331e-17 0.00021092)
(0.541868 -2.56489e-17 0.000212117)
(0.540101 -2.68206e-17 0.000213682)
(0.538386 -2.58243e-17 0.000214816)
(0.53658 -2.69753e-17 0.00021623)
(0.534826 -2.6018e-17 0.000216977)
(0.532992 -2.70175e-17 0.000218775)
(0.53119 -2.63025e-17 0.000219965)
(0.529319 -2.71582e-17 0.000221376)
(0.527481 -2.64814e-17 0.000222552)
(0.525572 -2.73207e-17 0.000223918)
(0.523697 -2.66246e-17 0.000224954)
(0.52175 -2.74555e-17 0.000226313)
(0.519837 -2.67777e-17 0.00022731)
(0.517854 -2.75773e-17 0.000228657)
(0.515903 -2.69258e-17 0.000229625)
(0.513884 -2.76883e-17 0.000230954)
(0.511895 -2.70661e-17 0.000231902)
(0.509839 -2.77889e-17 0.000233211)
(0.507813 -2.71972e-17 0.000234142)
(0.505722 -2.78792e-17 0.000235432)
(0.503658 -2.73182e-17 0.000236347)
(0.501531 -2.79589e-17 0.000237618)
(0.499429 -2.74284e-17 0.000238519)
(0.497266 -2.80274e-17 0.000239772)
(0.495127 -2.75274e-17 0.000240661)
(0.492929 -2.80842e-17 0.000241897)
(0.490753 -2.76149e-17 0.000242774)
(0.48852 -2.81288e-17 0.000243991)
(0.486306 -2.76904e-17 0.000244858)
(0.484038 -2.81606e-17 0.000246057)
(0.481787 -2.77536e-17 0.000246912)
(0.479485 -2.81789e-17 0.000248092)
(0.477197 -2.78043e-17 0.000248934)
(0.474861 -2.81834e-17 0.000250091)
(0.472536 -2.7842e-17 0.000250911)
(0.470166 -2.81745e-17 0.000252054)
(0.467805 -2.78656e-17 0.000252849)
(0.465402 -2.81519e-17 0.000253988)
(0.463005 -2.78745e-17 0.000254778)
(0.460568 -2.81145e-17 0.000255896)
(0.458135 -2.7869e-17 0.000256672)
(0.455667 -2.80625e-17 0.000257769)
(0.453198 -2.78483e-17 0.000258519)
(0.450697 -2.79964e-17 0.000259579)
(0.448194 -2.78112e-17 0.000260318)
(0.445662 -2.79152e-17 0.00026134)
(0.443124 -2.7758e-17 0.000262074)
(0.440561 -2.78188e-17 0.000263032)
(0.437991 -2.76882e-17 0.000263786)
(0.435397 -2.77065e-17 0.000264647)
(0.432794 -2.76023e-17 0.000265397)
(0.430172 -2.75749e-17 0.000266227)
(0.427537 -2.75025e-17 0.0002669)
(0.424886 -2.74418e-17 0.000267684)
(0.422221 -2.73713e-17 0.000268429)
(0.419541 -2.72971e-17 0.000269109)
(0.416848 -2.72182e-17 0.00026977)
(0.41414 -2.71356e-17 0.00027039)
(0.41142 -2.70482e-17 0.000270993)
(0.408685 -2.6957e-17 0.000271553)
(0.405939 -2.68611e-17 0.000272097)
(0.40318 -2.67614e-17 0.000272596)
(0.400409 -2.6657e-17 0.000273076)
(0.397626 -2.65488e-17 0.000273509)
(0.394833 -2.64357e-17 0.00027392)
(0.392028 -2.6319e-17 0.00027428)
(0.389213 -2.61975e-17 0.000274617)
(0.386387 -2.60723e-17 0.0002749)
(0.383552 -2.59423e-17 0.000275156)
(0.380707 -2.58086e-17 0.000275356)
(0.377854 -2.56702e-17 0.000275527)
(0.374992 -2.55282e-17 0.000275639)
(0.372123 -2.53815e-17 0.00027572)
(0.369246 -2.52312e-17 0.000275741)
(0.366363 -2.50763e-17 0.000275725)
(0.363473 -2.49178e-17 0.000275647)
(0.360577 -2.47548e-17 0.000275528)
(0.357676 -2.45884e-17 0.000275348)
(0.354771 -2.44175e-17 0.000275123)
(0.351861 -2.42432e-17 0.000274836)
(0.348948 -2.40646e-17 0.000274502)
(0.346031 -2.38826e-17 0.000274105)
(0.343113 -2.36965e-17 0.000273658)
(0.340193 -2.35071e-17 0.000273148)
(0.337271 -2.33138e-17 0.000272586)
(0.334349 -2.31171e-17 0.00027196)
(0.331427 -2.29168e-17 0.000271281)
(0.328506 -2.27132e-17 0.000270537)
(0.325586 -2.25061e-17 0.000269739)
(0.322668 -2.22959e-17 0.000268874)
(0.319753 -2.20824e-17 0.00026796)
(0.316841 -2.18658e-17 0.000266969)
(0.313933 -2.16462e-17 0.000265944)
(0.31103 -2.14236e-17 0.000264813)
(0.308131 -2.11982e-17 0.000263681)
(0.305239 -2.097e-17 0.000262438)
(0.302354 -2.07392e-17 0.000261173)
(0.299475 -2.05059e-17 0.000259899)
(0.296605 -2.02699e-17 0.000258389)
(0.293743 -2.00315e-17 0.000256924)
(0.290891 -1.9791e-17 0.000255453)
(0.288048 -1.95483e-17 0.000253893)
(0.285215 -1.93035e-17 0.000252267)
(0.282394 -1.90566e-17 0.000250582)
(0.279585 -1.8808e-17 0.00024884)
(0.276788 -1.85575e-17 0.000247043)
(0.274004 -1.83054e-17 0.000245194)
(0.271233 -1.80518e-17 0.000243291)
(0.268477 -1.77967e-17 0.00024134)
(0.265736 -1.75403e-17 0.000239339)
(0.26301 -1.72827e-17 0.000237292)
(0.260301 -1.7024e-17 0.000235196)
(0.257607 -1.67644e-17 0.000233059)
(0.254931 -1.65038e-17 0.000230875)
(0.252273 -1.62425e-17 0.000228655)
(0.249632 -1.59806e-17 0.000226389)
(0.247011 -1.57181e-17 0.000224094)
(0.244407 -1.54552e-17 0.000221754)
(0.241825 -1.5192e-17 0.000219395)
(0.23926 -1.49286e-17 0.000216984)
(0.236718 -1.46651e-17 0.000214575)
(0.234195 -1.44015e-17 0.000212096)
(0.231695 -1.41381e-17 0.000209662)
(0.229214 -1.38748e-17 0.000207108)
(0.226758 -1.36119e-17 0.000204694)
(0.224318 -1.33492e-17 0.00020204)
(0.221909 -1.30869e-17 0.000199727)
(0.21951 -1.28251e-17 0.000196955)
(0.21715 -1.25636e-17 0.000194876)
(0.214786 -1.23031e-17 0.000192057)
(0.21248 -1.2041e-17 0.0001913)
(0.210109 -1.19337e-17 0.000195736)
(0.207743 -1.1393e-17 0.000201838)
(0.205283 -1.139e-17 0.000207571)
(0.202838 -1.09623e-17 0.00021011)
(0.200348 -1.08332e-17 0.000212698)
(0.197859 -1.05754e-17 0.000213259)
(0.195364 -1.03576e-17 0.000213109)
(0.192877 -1.01289e-17 0.000211896)
(0.1904 -9.90179e-18 0.000210164)
(0.187938 -9.67617e-18 0.000208057)
(0.185491 -9.45211e-18 0.000205728)
(0.183064 -9.22951e-18 0.000203163)
(0.180656 -9.00847e-18 0.000200505)
(0.17827 -8.78896e-18 0.000197726)
(0.175906 -8.57086e-18 0.000194776)
(0.173566 -8.35446e-18 0.000191871)
(0.17125 -8.13963e-18 0.000188908)
(0.168958 -7.9264e-18 0.000185899)
(0.166692 -7.71479e-18 0.000182862)
(0.164451 -7.50486e-18 0.000179812)
(0.162236 -7.29662e-18 0.000176754)
(0.160048 -7.09011e-18 0.000173696)
(0.157886 -6.88536e-18 0.000170642)
(0.15575 -6.6824e-18 0.000167599)
(0.153641 -6.48126e-18 0.00016457)
(0.151559 -6.28195e-18 0.000161558)
(0.149504 -6.08452e-18 0.000158565)
(0.147476 -5.88898e-18 0.000155595)
(0.145475 -5.69535e-18 0.00015265)
(0.143501 -5.50368e-18 0.000149731)
(0.141553 -5.31396e-18 0.00014684)
(0.139632 -5.12624e-18 0.00014398)
(0.137738 -4.94051e-18 0.00014115)
(0.13587 -4.75682e-18 0.000138355)
(0.134029 -4.57517e-18 0.00013559)
(0.132213 -4.39559e-18 0.000132864)
(0.130425 -4.21808e-18 0.000130168)
(0.128661 -4.04268e-18 0.000127517)
(0.126924 -3.86936e-18 0.000124894)
(0.125211 -3.6982e-18 0.000122321)
(0.123525 -3.52912e-18 0.000119772)
(0.121862 -3.36222e-18 0.000117281)
(0.120227 -3.1974e-18 0.000114807)
(0.118612 -3.0348e-18 0.000112403)
(0.117026 -2.87422e-18 0.000110007)
(0.115459 -2.7159e-18 0.000107695)
(0.113922 -2.55949e-18 0.000105381)
(0.1124 -2.40538e-18 0.000103172)
(0.110911 -2.25296e-18 0.000100945)
(0.109431 -2.10288e-18 9.88746e-05)
(0.107989 -1.95399e-18 9.67155e-05)
(0.106548 -1.80752e-18 9.49098e-05)
(0.105151 -1.66138e-18 9.27173e-05)
(0.103745 -1.51721e-18 9.15053e-05)
(0.102384 -1.3742e-18 8.92186e-05)
(0.101007 -1.22617e-18 8.90003e-05)
(0.0996754 -1.09011e-18 8.60694e-05)
(0.0982887 -9.26384e-19 9.03019e-05)
(0.0970087 -8.04591e-19 8.00606e-05)
(0.0954802 -6.17899e-19 0.000107766)
(0.0944126 -4.88473e-19 6.51696e-05)
(0.091642 -4.61431e-19 0.000184831)
(0.116303 0 -0.000743525)
(0.358549 0 -0.060943)
(0.455695 0 -0.10083)
(0.501308 0 -0.103194)
(0.53787 0 -0.0816598)
(0.574336 0 -0.0618517)
(0.608603 0 -0.0472144)
(0.633332 0 -0.0364177)
(0.652383 0 -0.0281532)
(0.668131 0 -0.0221056)
(0.681146 0 -0.017723)
(0.691833 0 -0.0144741)
(0.700726 0 -0.0120129)
(0.708237 0 -0.0101219)
(0.714642 0 -0.00864621)
(0.720144 0 -0.00747427)
(0.72491 0 -0.00652692)
(0.729062 0 -0.00575133)
(0.732706 0 -0.00510701)
(0.735915 0 -0.00456536)
(0.738757 0 -0.00410438)
(0.741276 0 -0.00370716)
(0.743521 0 -0.00336034)
(0.745519 0 -0.00306149)
(0.7473 0 -0.00278997)
(0.748881 0 -0.00255224)
(0.750285 0 -0.00233033)
(0.751526 0 -0.00213299)
(0.752618 0 -0.001949)
(0.753574 0 -0.00178293)
(0.754403 0 -0.00162757)
(0.755116 0 -0.00148588)
(0.75572 0 -0.00135242)
(0.75622 0 -0.00123032)
(0.756627 0 -0.00111374)
(0.756939 0 -0.0010081)
(0.757172 0 -0.000903369)
(0.757314 0 -0.000814927)
(0.757388 0 -0.000713096)
(0.757387 0 -0.00063903)
(0.75727 0 -0.000544404)
(0.757161 0 -0.000481765)
(0.756893 0 -0.00040082)
(0.756678 0 -0.000343617)
(0.756284 0 -0.000273585)
(0.755963 0 -0.000221554)
(0.755461 0 -0.000160917)
(0.755045 0 -0.000113669)
(0.754445 0 -6.00727e-05)
(0.753936 0 -1.6386e-05)
(0.753241 0 3.55459e-05)
(0.752644 0 7.77823e-05)
(0.751854 0 0.000120882)
(0.751166 0 0.000154022)
(0.750285 0 0.00019205)
(0.749509 0 0.000223207)
(0.748544 0 0.000258286)
(0.747686 0 0.000287453)
(0.746642 0 0.000319906)
(0.745708 0 0.000346984)
(0.744587 0 0.000376247)
(0.743579 0 0.000400282)
(0.742403 0 0.000428326)
(0.741309 0 0.000452141)
(0.740068 0 0.000477065)
(0.738909 0 0.000498827)
(0.737601 0 0.0005219)
(0.736378 0 0.000541511)
(0.735007 0 0.000562685)
(0.73372 0 0.000580611)
(0.732289 0 0.000600007)
(0.73094 0 0.000616403)
(0.729452 0 0.000634165)
(0.728042 0 0.000649175)
(0.726499 0 0.000665466)
(0.72503 0 0.000679231)
(0.723431 0 0.000694191)
(0.721905 0 0.000706833)
(0.720253 0 0.000720593)
(0.71867 0 0.000732226)
(0.716966 0 0.000744911)
(0.715328 0 0.000755639)
(0.713573 0 0.000767362)
(0.711881 0 0.000777283)
(0.710076 0 0.000788145)
(0.70833 0 0.000797345)
(0.706476 0 0.000807439)
(0.704678 0 0.000815995)
(0.702775 0 0.000825402)
(0.700926 0 0.000833381)
(0.698975 0 0.000842172)
(0.697075 0 0.000849634)
(0.695077 0 0.000857871)
(0.693127 0 0.000864867)
(0.691082 0 0.000872606)
(0.689083 0 0.00087918)
(0.686991 0 0.000886469)
(0.684943 0 0.000892662)
(0.682805 0 0.000899543)
(0.680709 0 0.000905389)
(0.678525 0 0.000911899)
(0.676381 0 0.000917431)
(0.674152 0 0.000923603)
(0.67196 0 0.000928849)
(0.669686 0 0.000934714)
(0.667447 0 0.000939701)
(0.665128 0 0.000945276)
(0.662843 0 0.000950022)
(0.660478 0 0.000955247)
(0.658148 0 0.000959735)
(0.655736 0 0.000964437)
(0.653361 0 0.000968131)
(0.650911 0 0.000973385)
(0.648484 0 0.000977589)
(0.645991 0 0.000982118)
(0.64352 0 0.000986145)
(0.640982 0 0.000990385)
(0.638465 0 0.000994036)
(0.635884 0 0.000998097)
(0.633322 0 0.00100155)
(0.630698 0 0.00100542)
(0.628091 0 0.00100868)
(0.625424 0 0.00101236)
(0.622773 0 0.00101544)
(0.620064 0 0.00101893)
(0.617368 0 0.00102183)
(0.614617 0 0.00102513)
(0.611876 0 0.00102786)
(0.609084 0 0.00103097)
(0.6063 0 0.00103353)
(0.603466 0 0.00103645)
(0.600639 0 0.00103884)
(0.597764 0 0.00104158)
(0.594894 0 0.0010438)
(0.591979 0 0.00104634)
(0.589066 0 0.00104839)
(0.586112 0 0.00105074)
(0.583156 0 0.00105262)
(0.580164 0 0.00105477)
(0.577166 0 0.00105647)
(0.574135 0 0.00105842)
(0.571096 0 0.00105991)
(0.568028 0 0.00106168)
(0.564949 0 0.00106296)
(0.561843 0 0.00106457)
(0.558725 0 0.00106567)
(0.555583 0 0.00106707)
(0.552426 0 0.00106797)
(0.549248 0 0.00106915)
(0.546054 0 0.00106986)
(0.542841 0 0.00107079)
(0.539611 0 0.00107129)
(0.536364 0 0.00107197)
(0.5331 0 0.00107223)
(0.529819 0 0.00107266)
(0.526522 0 0.00107273)
(0.523209 0 0.00107283)
(0.51988 0 0.00107275)
(0.516536 0 0.00107248)
(0.513177 0 0.00107204)
(0.509804 0 0.00107168)
(0.506416 0 0.00107115)
(0.503014 0 0.00107038)
(0.499599 0 0.00106951)
(0.49617 0 0.00106846)
(0.49273 0 0.00106729)
(0.489276 0 0.00106594)
(0.485812 0 0.00106447)
(0.482336 0 0.00106282)
(0.478849 0 0.00106105)
(0.475352 0 0.00105908)
(0.471845 0 0.001057)
(0.468329 0 0.00105471)
(0.464804 0 0.0010523)
(0.461272 0 0.00104969)
(0.457731 0 0.00104695)
(0.454184 0 0.00104401)
(0.45063 0 0.00104093)
(0.44707 0 0.00103764)
(0.443505 0 0.00103423)
(0.439936 0 0.0010306)
(0.436362 0 0.00102684)
(0.432785 0 0.00102286)
(0.429206 0 0.00101874)
(0.425624 0 0.00101441)
(0.422041 0 0.00100993)
(0.418458 0 0.00100525)
(0.414874 0 0.00100042)
(0.411291 0 0.000995381)
(0.407709 0 0.000990194)
(0.40413 0 0.00098481)
(0.400553 0 0.000979273)
(0.39698 0 0.000973543)
(0.393411 0 0.000967659)
(0.389847 0 0.000961588)
(0.386289 0 0.000955364)
(0.382737 0 0.000948956)
(0.379193 0 0.000942403)
(0.375656 0 0.000935659)
(0.372128 0 0.000928794)
(0.36861 0 0.000921698)
(0.365101 0 0.000914551)
(0.361604 0 0.000907139)
(0.358118 0 0.000899705)
(0.354644 0 0.000892109)
(0.351184 0 0.000884079)
(0.347738 0 0.000876195)
(0.344306 0 0.000868226)
(0.340889 0 0.000860046)
(0.337488 0 0.000851726)
(0.334104 0 0.00084328)
(0.330738 0 0.000834714)
(0.327389 0 0.000826032)
(0.324059 0 0.000817245)
(0.320749 0 0.000808352)
(0.317459 0 0.000799367)
(0.314189 0 0.000790286)
(0.310941 0 0.000781126)
(0.307715 0 0.000771879)
(0.304511 0 0.000762566)
(0.30133 0 0.000753176)
(0.298174 0 0.000743736)
(0.295041 0 0.000734225)
(0.291933 0 0.000724685)
(0.28885 0 0.000715078)
(0.285794 0 0.000705468)
(0.282762 0 0.000695788)
(0.279759 0 0.000686144)
(0.276781 0 0.000676411)
(0.273832 0 0.000666781)
(0.270908 0 0.000657011)
(0.268016 0 0.000647466)
(0.265148 0 0.000637676)
(0.262312 0 0.000628317)
(0.2595 0 0.000618613)
(0.256722 0 0.000609578)
(0.253965 0 0.000600445)
(0.251242 0 0.000594348)
(0.248537 0 0.000593974)
(0.245855 0 0.00059612)
(0.243183 0 0.00059827)
(0.240524 0 0.000597088)
(0.237873 0 0.000596214)
(0.235235 0 0.00059283)
(0.232609 0 0.000588413)
(0.229999 0 0.000582605)
(0.227407 0 0.000576077)
(0.224835 0 0.000568989)
(0.222283 0 0.000561535)
(0.219754 0 0.000553693)
(0.217248 0 0.000545712)
(0.214766 0 0.000537475)
(0.212311 0 0.000528996)
(0.20988 0 0.000520623)
(0.207476 0 0.000512136)
(0.205099 0 0.000503586)
(0.202749 0 0.000495013)
(0.200427 0 0.00048644)
(0.198132 0 0.000477883)
(0.195865 0 0.000469354)
(0.193627 0 0.000460866)
(0.191417 0 0.000452432)
(0.189235 0 0.00044406)
(0.187082 0 0.000435754)
(0.184957 0 0.000427524)
(0.18286 0 0.000419373)
(0.180792 0 0.000411308)
(0.178751 0 0.00040333)
(0.176739 0 0.000395448)
(0.174755 0 0.00038766)
(0.172799 0 0.000379974)
(0.170871 0 0.000372388)
(0.16897 0 0.00036491)
(0.167096 0 0.000357535)
(0.16525 0 0.000350271)
(0.16343 0 0.000343115)
(0.161637 0 0.000336077)
(0.15987 0 0.000329146)
(0.158131 0 0.000322336)
(0.156415 0 0.000315635)
(0.154728 0 0.000309058)
(0.153062 0 0.000302591)
(0.151426 0 0.000296258)
(0.149809 0 0.000290032)
(0.148223 0 0.00028396)
(0.146652 0 0.000277994)
(0.145115 0 0.000272202)
(0.143588 0 0.000266569)
(0.142099 0 0.000261041)
(0.140612 0 0.000255997)
(0.139168 0 0.000250585)
(0.137718 0 0.000246793)
(0.136311 0 0.000241512)
(0.13489 0 0.00023958)
(0.133512 0 0.00023451)
(0.13209 0 0.000238939)
(0.130752 0 0.000226137)
(0.12921 0 0.000265267)
(0.128044 0 0.000210903)
(0.125408 0 0.000423619)
(0.878276 0 -0.0548847)
(0.871073 0 -0.0884549)
(0.841218 0 -0.110858)
(0.821721 0 -0.106755)
(0.810037 0 -0.0881029)
(0.809685 0 -0.0708355)
(0.814231 0 -0.0563848)
(0.819057 0 -0.0451091)
(0.823881 0 -0.0360892)
(0.828764 0 -0.0291063)
(0.833325 0 -0.0237768)
(0.837301 0 -0.0196543)
(0.840688 0 -0.0164161)
(0.843541 0 -0.0138477)
(0.845907 0 -0.0117874)
(0.84783 0 -0.0101154)
(0.849364 0 -0.00873956)
(0.850555 0 -0.00759775)
(0.851447 0 -0.00663855)
(0.852075 0 -0.00582719)
(0.852478 0 -0.00513195)
(0.852678 0 -0.00453897)
(0.852697 0 -0.00400551)
(0.852572 0 -0.00356048)
(0.85225 0 -0.00311084)
(0.851904 0 -0.00279234)
(0.85132 0 -0.00243077)
(0.850802 0 -0.00217683)
(0.85003 0 -0.00188768)
(0.849364 0 -0.00167542)
(0.848456 0 -0.00144017)
(0.847662 0 -0.00125931)
(0.84665 0 -0.00106431)
(0.845748 0 -0.000908302)
(0.844653 0 -0.000743945)
(0.843659 0 -0.000608241)
(0.842498 0 -0.000467838)
(0.841426 0 -0.00034857)
(0.840209 0 -0.00022633)
(0.839071 0 -0.000118782)
(0.837802 0 -1.05245e-05)
(0.836607 0 8.25009e-05)
(0.835288 0 0.000177858)
(0.83404 0 0.000260113)
(0.832675 0 0.00034502)
(0.831376 0 0.000418378)
(0.829966 0 0.000493542)
(0.828617 0 0.00055872)
(0.827163 0 0.000626341)
(0.825765 0 0.000686306)
(0.824272 0 0.000748247)
(0.822829 0 0.000805203)
(0.8213 0 0.000861459)
(0.819818 0 0.000911764)
(0.81825 0 0.000962421)
(0.816726 0 0.00100832)
(0.81512 0 0.00105462)
(0.813557 0 0.00109675)
(0.811915 0 0.00113914)
(0.810315 0 0.00117787)
(0.808634 0 0.00121579)
(0.806996 0 0.00125014)
(0.805284 0 0.00128681)
(0.803603 0 0.00131998)
(0.801857 0 0.00135299)
(0.800139 0 0.00138387)
(0.798355 0 0.00141434)
(0.796601 0 0.00144242)
(0.794778 0 0.0014706)
(0.792987 0 0.00149655)
(0.791126 0 0.00152267)
(0.789297 0 0.00154669)
(0.787399 0 0.00157091)
(0.785531 0 0.00159319)
(0.783595 0 0.0016157)
(0.781688 0 0.00163641)
(0.779713 0 0.00165737)
(0.777767 0 0.00167665)
(0.775753 0 0.00169619)
(0.773767 0 0.00171418)
(0.771713 0 0.00173243)
(0.769688 0 0.00174924)
(0.767594 0 0.0017663)
(0.765528 0 0.00178204)
(0.763394 0 0.00179804)
(0.761287 0 0.0018128)
(0.759113 0 0.00182782)
(0.756965 0 0.0018417)
(0.754751 0 0.00185582)
(0.752561 0 0.00186889)
(0.750305 0 0.00188219)
(0.748074 0 0.00189452)
(0.745777 0 0.00190707)
(0.743504 0 0.00191871)
(0.741166 0 0.00193056)
(0.738851 0 0.00194157)
(0.736471 0 0.00195278)
(0.734113 0 0.0019632)
(0.731691 0 0.00197382)
(0.72929 0 0.0019837)
(0.726827 0 0.00199376)
(0.724383 0 0.00200313)
(0.721877 0 0.00201267)
(0.71939 0 0.00202156)
(0.716842 0 0.00203061)
(0.714312 0 0.00203907)
(0.711722 0 0.00204765)
(0.709148 0 0.00205568)
(0.706514 0 0.00206373)
(0.703898 0 0.00207134)
(0.70122 0 0.00207857)
(0.698561 0 0.0020852)
(0.695844 0 0.00209285)
(0.693137 0 0.00209973)
(0.690378 0 0.00210669)
(0.687628 0 0.00211331)
(0.684826 0 0.00211973)
(0.682032 0 0.00212576)
(0.679186 0 0.00213179)
(0.676348 0 0.00213745)
(0.673461 0 0.00214311)
(0.670579 0 0.0021484)
(0.667649 0 0.00215368)
(0.664723 0 0.00215861)
(0.661751 0 0.00216351)
(0.658781 0 0.00216808)
(0.655767 0 0.0021726)
(0.652753 0 0.00217681)
(0.649698 0 0.00218096)
(0.64664 0 0.0021848)
(0.643544 0 0.00218856)
(0.640443 0 0.00219204)
(0.637306 0 0.00219542)
(0.634162 0 0.00219852)
(0.630985 0 0.00220151)
(0.627798 0 0.00220424)
(0.624582 0 0.00220682)
(0.621353 0 0.00220916)
(0.618097 0 0.00221134)
(0.614826 0 0.00221328)
(0.611532 0 0.00221505)
(0.608221 0 0.00221654)
(0.604888 0 0.00221792)
(0.601537 0 0.00221902)
(0.598166 0 0.00221997)
(0.594777 0 0.00222062)
(0.591369 0 0.00222111)
(0.587943 0 0.00222132)
(0.584498 0 0.00222135)
(0.581036 0 0.00222113)
(0.577556 0 0.00222068)
(0.574059 0 0.00221993)
(0.570544 0 0.00221898)
(0.567013 0 0.0022177)
(0.563466 0 0.00221628)
(0.559903 0 0.00221449)
(0.556323 0 0.00221253)
(0.552728 0 0.00221033)
(0.54912 0 0.00220751)
(0.545496 0 0.00220466)
(0.541858 0 0.00220177)
(0.538206 0 0.00219851)
(0.534541 0 0.00219486)
(0.530862 0 0.00219096)
(0.527172 0 0.00218671)
(0.523469 0 0.00218221)
(0.519755 0 0.00217737)
(0.51603 0 0.00217226)
(0.512294 0 0.00216681)
(0.508548 0 0.00216109)
(0.504793 0 0.00215502)
(0.501029 0 0.00214868)
(0.497257 0 0.00214198)
(0.493476 0 0.00213501)
(0.489689 0 0.00212767)
(0.485895 0 0.00212005)
(0.482095 0 0.00211207)
(0.478289 0 0.0021038)
(0.474479 0 0.00209517)
(0.470664 0 0.00208625)
(0.466847 0 0.00207698)
(0.463026 0 0.00206742)
(0.459203 0 0.00205748)
(0.455379 0 0.00204725)
(0.451554 0 0.00203666)
(0.447728 0 0.00202577)
(0.443904 0 0.00201453)
(0.440081 0 0.00200299)
(0.43626 0 0.0019911)
(0.432441 0 0.00197892)
(0.428626 0 0.00196639)
(0.424816 0 0.00195358)
(0.42101 0 0.00194043)
(0.417211 0 0.00192699)
(0.413417 0 0.00191323)
(0.409631 0 0.00189918)
(0.405854 0 0.00188482)
(0.402084 0 0.00187019)
(0.398325 0 0.00185525)
(0.394576 0 0.00184005)
(0.390838 0 0.0018245)
(0.387111 0 0.00180878)
(0.383398 0 0.00179265)
(0.379698 0 0.00177646)
(0.376012 0 0.00175988)
(0.372341 0 0.00174278)
(0.368686 0 0.00172587)
(0.365047 0 0.00170873)
(0.361425 0 0.00169126)
(0.357822 0 0.00167358)
(0.354236 0 0.00165568)
(0.350671 0 0.00163759)
(0.347125 0 0.00161932)
(0.3436 0 0.00160088)
(0.340096 0 0.00158227)
(0.336615 0 0.00156352)
(0.333156 0 0.00154462)
(0.32972 0 0.0015256)
(0.326309 0 0.00150646)
(0.322922 0 0.00148722)
(0.319561 0 0.00146787)
(0.316225 0 0.00144846)
(0.312916 0 0.00142895)
(0.309633 0 0.00140942)
(0.306378 0 0.0013898)
(0.303151 0 0.00137019)
(0.299952 0 0.00135052)
(0.296782 0 0.0013309)
(0.293641 0 0.0013112)
(0.29053 0 0.00129165)
(0.287448 0 0.00127199)
(0.284398 0 0.0012526)
(0.281376 0 0.00123304)
(0.278387 0 0.00121396)
(0.275426 0 0.00119471)
(0.272498 0 0.00117619)
(0.269599 0 0.00115811)
(0.26673 0 0.00114295)
(0.263891 0 0.00113328)
(0.261088 0 0.00112723)
(0.258316 0 0.00112072)
(0.255571 0 0.00111251)
(0.252852 0 0.00110401)
(0.250157 0 0.00109367)
(0.247486 0 0.0010822)
(0.244838 0 0.0010694)
(0.242214 0 0.00105578)
(0.239616 0 0.0010415)
(0.237042 0 0.00102678)
(0.234494 0 0.00101158)
(0.231973 0 0.000996219)
(0.229478 0 0.000980518)
(0.227012 0 0.000964577)
(0.224573 0 0.000948797)
(0.222162 0 0.000932864)
(0.219779 0 0.00091689)
(0.217426 0 0.000900921)
(0.215101 0 0.000884991)
(0.212805 0 0.000869124)
(0.210538 0 0.000853336)
(0.208301 0 0.00083765)
(0.206093 0 0.000822083)
(0.203915 0 0.000806649)
(0.201765 0 0.000791357)
(0.199645 0 0.000776218)
(0.197555 0 0.000761238)
(0.195493 0 0.000746429)
(0.193461 0 0.000731794)
(0.191457 0 0.000717346)
(0.189483 0 0.000703081)
(0.187537 0 0.000689015)
(0.185619 0 0.00067514)
(0.18373 0 0.000661474)
(0.181869 0 0.000648001)
(0.180036 0 0.000634746)
(0.17823 0 0.000621689)
(0.176452 0 0.000608862)
(0.1747 0 0.000596229)
(0.172976 0 0.000583835)
(0.171277 0 0.00057163)
(0.169607 0 0.00055968)
(0.16796 0 0.000547909)
(0.166342 0 0.000536419)
(0.164744 0 0.000525093)
(0.163177 0 0.000514091)
(0.161628 0 0.000503244)
(0.160111 0 0.00049276)
(0.158607 0 0.000482512)
(0.157138 0 0.000472548)
(0.155677 0 0.000463265)
(0.154254 0 0.000453694)
(0.152831 0 0.000446332)
(0.151448 0 0.00043719)
(0.150056 0 0.000433043)
(0.148704 0 0.00042453)
(0.14732 0 0.00042977)
(0.146003 0 0.000412386)
(0.144528 0 0.000465856)
(0.143358 0 0.000402159)
(0.140985 0 0.000694263)
(0.970177 0 -0.0582579)
(0.962151 0 -0.0752819)
(0.940621 0 -0.0832952)
(0.92245 0 -0.0804321)
(0.905972 0 -0.0709105)
(0.896973 0 -0.0598581)
(0.892582 0 -0.0503127)
(0.890452 0 -0.0420599)
(0.889614 0 -0.03494)
(0.889681 0 -0.0290105)
(0.890216 0 -0.0241795)
(0.890873 0 -0.0202392)
(0.891489 0 -0.0170063)
(0.891998 0 -0.0143446)
(0.892359 0 -0.0121423)
(0.892551 0 -0.0103087)
(0.892573 0 -0.0087683)
(0.89243 0 -0.00746847)
(0.89213 0 -0.00635953)
(0.891689 0 -0.00541573)
(0.891101 0 -0.00458792)
(0.890417 0 -0.00389027)
(0.889563 0 -0.00324549)
(0.888705 0 -0.00272962)
(0.887637 0 -0.00222006)
(0.886635 0 -0.00182047)
(0.885395 0 -0.00141702)
(0.884263 0 -0.00110028)
(0.882896 0 -0.000778228)
(0.881646 0 -0.000520474)
(0.880184 0 -0.000259634)
(0.878833 0 -4.57115e-05)
(0.877297 0 0.00016887)
(0.87586 0 0.000348849)
(0.874265 0 0.000527924)
(0.872755 0 0.000680876)
(0.871111 0 0.00083188)
(0.869537 0 0.000963232)
(0.867854 0 0.00109271)
(0.866226 0 0.00120855)
(0.864513 0 0.00132114)
(0.862842 0 0.00142177)
(0.861101 0 0.00151882)
(0.859391 0 0.00160704)
(0.857627 0 0.00169216)
(0.855884 0 0.00177045)
(0.854098 0 0.00184611)
(0.852326 0 0.00191643)
(0.850519 0 0.00198449)
(0.84872 0 0.00204819)
(0.846893 0 0.00210994)
(0.84507 0 0.00216903)
(0.843226 0 0.00222481)
(0.841381 0 0.00227662)
(0.839515 0 0.00232581)
(0.837648 0 0.00237243)
(0.835761 0 0.00241734)
(0.833872 0 0.00246017)
(0.831965 0 0.00250144)
(0.830055 0 0.00254094)
(0.828125 0 0.00257825)
(0.826193 0 0.00261407)
(0.824242 0 0.00265008)
(0.822288 0 0.00268423)
(0.820315 0 0.00271744)
(0.818338 0 0.00274969)
(0.816341 0 0.00278055)
(0.814341 0 0.00281029)
(0.812319 0 0.00283909)
(0.810295 0 0.00286691)
(0.808248 0 0.00289391)
(0.806199 0 0.00291998)
(0.804125 0 0.0029453)
(0.80205 0 0.00296978)
(0.799949 0 0.00299364)
(0.797847 0 0.00301668)
(0.795717 0 0.00303919)
(0.793587 0 0.00306093)
(0.791427 0 0.0030822)
(0.789269 0 0.00310275)
(0.787079 0 0.00312288)
(0.784891 0 0.00314233)
(0.782669 0 0.00316141)
(0.78045 0 0.00317986)
(0.778196 0 0.00319798)
(0.775945 0 0.0032155)
(0.773658 0 0.00323273)
(0.771375 0 0.00324941)
(0.769054 0 0.00326581)
(0.766737 0 0.00328169)
(0.764381 0 0.00329733)
(0.762031 0 0.00331247)
(0.759639 0 0.00332739)
(0.757254 0 0.00334184)
(0.754826 0 0.00335608)
(0.752404 0 0.00336989)
(0.74994 0 0.00338349)
(0.747482 0 0.00339668)
(0.744981 0 0.00340968)
(0.742485 0 0.00342228)
(0.739946 0 0.0034347)
(0.737412 0 0.00344675)
(0.734835 0 0.00345861)
(0.732262 0 0.00347012)
(0.729646 0 0.00348145)
(0.727035 0 0.00349245)
(0.724379 0 0.00350326)
(0.721728 0 0.00351374)
(0.719033 0 0.00352395)
(0.716342 0 0.00353391)
(0.713605 0 0.00354321)
(0.710875 0 0.00355218)
(0.708099 0 0.00356162)
(0.705326 0 0.00357065)
(0.702511 0 0.0035796)
(0.699696 0 0.00358828)
(0.69684 0 0.00359651)
(0.693984 0 0.00360446)
(0.691086 0 0.00361216)
(0.688188 0 0.0036196)
(0.685249 0 0.00362678)
(0.682309 0 0.0036337)
(0.679329 0 0.00364036)
(0.676347 0 0.00364676)
(0.673326 0 0.00365289)
(0.670301 0 0.00365875)
(0.667239 0 0.00366434)
(0.664172 0 0.00366966)
(0.661069 0 0.00367469)
(0.657959 0 0.00367946)
(0.654816 0 0.00368392)
(0.651664 0 0.00368812)
(0.648481 0 0.003692)
(0.645286 0 0.00369561)
(0.642063 0 0.00369889)
(0.638827 0 0.00370189)
(0.635564 0 0.00370456)
(0.632286 0 0.00370694)
(0.628985 0 0.00370898)
(0.625666 0 0.00371072)
(0.622326 0 0.00371211)
(0.618967 0 0.00371317)
(0.615588 0 0.00371391)
(0.61219 0 0.00371431)
(0.608773 0 0.00371431)
(0.605337 0 0.00371396)
(0.601882 0 0.00371322)
(0.598409 0 0.00371214)
(0.594918 0 0.00371066)
(0.59141 0 0.00370882)
(0.587883 0 0.00370657)
(0.584339 0 0.00370391)
(0.580778 0 0.00370085)
(0.577201 0 0.00369735)
(0.573606 0 0.0036935)
(0.569996 0 0.00368912)
(0.56637 0 0.00368446)
(0.562729 0 0.00367928)
(0.559073 0 0.00367325)