/*--------------------------------*- C++ -*----------------------------------*\
| =========                 |                                                 |
| \\      /  F ield         | OpenFOAM: The Open Source CFD Toolbox           |
|  \\    /   O peration     | Version:  v2012                                 |
|   \\  /    A nd           | Website:  www.openfoam.com                      |
|    \\/     M anipulation  |                                                 |
\*---------------------------------------------------------------------------*/
FoamFile
{
    version     2.0;
    format      ascii;
    class       volVectorField;
    location    "4000";
    object      wallShearStress;
}
// * * * * * * * * * * * * * * * * * * * * * * * * * * * * * * * * * * * * * //

dimensions      [0 2 -2 0 0 0 0];


internalField   uniform (0 0 0);

boundaryField
{
    slipWall
    {
        type            calculated;
        value           uniform (0 0 0);
    }
    hWall
    {
        type            calculated;
        value           uniform (0 0 0);
    }
    top
    {
        type            calculated;
        value           uniform (0 0 0);
    }
    left
    {
        type            calculated;
        value           uniform (0 0 0);
    }
    inlet
    {
        type            calculated;
        value           uniform (0 0 0);
    }
    side1
    {
        type            empty;
    }
    side2
    {
        type            empty;
    }
    right
    {
        type            calculated;
        value           uniform (0 0 0);
    }
    down
    {
        type            calculated;
        value           nonuniform List<vector> 
300
(
(0.000504199 3.9091e-19 -0.000250433)
(0.000577064 3.76194e-19 0.000221915)
(9.81361e-05 4.05154e-19 0.000441655)
(-0.000260351 2.31369e-19 0.000440362)
(-0.000570062 1.0476e-19 0.000318288)
(-0.000884444 7.17591e-20 0.000234805)
(-0.00115275 6.46046e-20 0.000171308)
(-0.00132975 6.00101e-20 0.00012556)
(-0.00145835 5.80643e-20 9.54642e-05)
(-0.0015617 5.77677e-20 7.50567e-05)
(-0.00164518 5.80586e-20 6.03982e-05)
(-0.00171387 5.85427e-20 4.96663e-05)
(-0.00177144 5.91116e-20 4.1666e-05)
(-0.00182171 5.97495e-20 3.55659e-05)
(-0.00186603 6.0405e-20 3.07569e-05)
(-0.00190524 6.10448e-20 2.6893e-05)
(-0.0019413 6.16976e-20 2.37152e-05)
(-0.00197347 6.23117e-20 2.10599e-05)
(-0.00200394 6.29437e-20 1.88259e-05)
(-0.00203124 6.35314e-20 1.69003e-05)
(-0.0020572 6.41259e-20 1.52452e-05)
(-0.00208083 6.46896e-20 1.37879e-05)
(-0.00210318 6.52501e-20 1.25179e-05)
(-0.00212387 6.57925e-20 1.13898e-05)
(-0.00214328 6.63261e-20 1.03706e-05)
(-0.00216139 6.68478e-20 9.46555e-06)
(-0.00217829 6.73583e-20 8.63598e-06)
(-0.002194 6.78584e-20 7.89615e-06)
(-0.00220863 6.83478e-20 7.2193e-06)
(-0.0022222 6.88282e-20 6.60849e-06)
(-0.00223478 6.92989e-20 6.0494e-06)
(-0.00224639 6.97621e-20 5.53767e-06)
(-0.0022571 7.02165e-20 5.07026e-06)
(-0.00226692 7.06646e-20 4.63563e-06)
(-0.00227592 7.1105e-20 4.24085e-06)
(-0.0022841 7.154e-20 3.86705e-06)
(-0.00229155 7.19686e-20 3.52863e-06)
(-0.00229822 7.23919e-20 3.2086e-06)
(-0.00230424 7.28111e-20 2.91862e-06)
(-0.00230956 7.32244e-20 2.66148e-06)
(-0.00231428 7.36363e-20 2.42033e-06)
(-0.00231834 7.40428e-20 2.17235e-06)
(-0.00232187 7.44471e-20 1.95236e-06)
(-0.00232477 7.48467e-20 1.7308e-06)
(-0.00232719 7.52444e-20 1.53199e-06)
(-0.00232905 7.56385e-20 1.34015e-06)
(-0.00233043 7.60288e-20 1.15835e-06)
(-0.00233136 7.64184e-20 9.96327e-07)
(-0.0023318 7.68019e-20 8.22758e-07)
(-0.00233193 7.71883e-20 7.02698e-07)
(-0.00233151 1.41446e-19 5.34246e-07)
(-0.00233094 5.31288e-20 3.74207e-07)
(-0.00232961 1.25801e-19 2.44616e-07)
(-0.00232855 5.69444e-20 1.44479e-07)
(-0.00232651 1.08727e-19 3.91e-08)
(-0.00232492 6.24464e-20 -4.65456e-08)
(-0.00232225 1.01903e-19 -1.41465e-07)
(-0.00232012 6.594e-20 -2.20434e-07)
(-0.00231684 9.87289e-20 -3.07454e-07)
(-0.00231419 6.83919e-20 -3.79877e-07)
(-0.00231035 9.66636e-20 -4.60407e-07)
(-0.00230719 7.0512e-20 -5.1886e-07)
(-0.00230292 9.3256e-20 -5.97303e-07)
(-0.00229919 7.35901e-20 -6.60528e-07)
(-0.00229444 9.28879e-20 -7.23922e-07)
(-0.00229029 7.49944e-20 -7.80119e-07)
(-0.00228509 9.29068e-20 -8.39931e-07)
(-0.00228053 7.61633e-20 -8.88432e-07)
(-0.00227494 9.26412e-20 -9.42852e-07)
(-0.00226997 7.75324e-20 -9.85441e-07)
(-0.00226404 9.24656e-20 -1.03425e-06)
(-0.0022587 7.88534e-20 -1.07188e-06)
(-0.00225245 9.23994e-20 -1.11549e-06)
(-0.00224678 8.01033e-20 -1.14873e-06)
(-0.00224024 9.24308e-20 -1.18766e-06)
(-0.00223425 8.12821e-20 -1.21706e-06)
(-0.00222745 9.25426e-20 -1.25183e-06)
(-0.00222117 8.23953e-20 -1.27786e-06)
(-0.00221413 9.27184e-20 -1.30895e-06)
(-0.00220757 8.34494e-20 -1.33205e-06)
(-0.0022003 9.29455e-20 -1.35991e-06)
(-0.0021935 8.4449e-20 -1.38047e-06)
(-0.00218602 9.32135e-20 -1.4055e-06)
(-0.00217897 8.53981e-20 -1.42386e-06)
(-0.00217129 9.35134e-20 -1.44643e-06)
(-0.00216402 8.63e-20 -1.4629e-06)
(-0.00215614 9.38373e-20 -1.48333e-06)
(-0.00214866 8.71572e-20 -1.49815e-06)
(-0.0021406 9.41784e-20 -1.51673e-06)
(-0.00213291 8.79722e-20 -1.53014e-06)
(-0.00212467 9.45303e-20 -1.54709e-06)
(-0.00211679 8.87467e-20 -1.55927e-06)
(-0.00210838 9.48874e-20 -1.57481e-06)
(-0.0021003 8.94824e-20 -1.58592e-06)
(-0.00209172 9.5245e-20 -1.60022e-06)
(-0.00208347 9.01801e-20 -1.61038e-06)
(-0.00207472 9.55987e-20 -1.62358e-06)
(-0.00206628 9.08403e-20 -1.63291e-06)
(-0.00205738 9.59449e-20 -1.64514e-06)
(-0.00204877 9.14631e-20 -1.65374e-06)
(-0.0020397 9.62808e-20 -1.66511e-06)
(-0.00203092 9.20476e-20 -1.67307e-06)
(-0.00202169 9.66059e-20 -1.68366e-06)
(-0.00201274 9.2591e-20 -1.69108e-06)
(-0.00200336 9.69252e-20 -1.70094e-06)
(-0.00199425 9.30855e-20 -1.70796e-06)
(-0.00198471 9.72551e-20 -1.71704e-06)
(-0.00197544 9.35125e-20 -1.72384e-06)
(-0.00196574 9.76226e-20 -1.73182e-06)
(-0.00195632 9.3844e-20 -1.73804e-06)
(-0.00194647 9.7861e-20 -1.74559e-06)
(-0.00193689 9.42317e-20 -1.74736e-06)
(-0.00192693 9.76833e-20 -1.75824e-06)
(-0.00191715 9.49366e-20 -1.76383e-06)
(-0.00190704 9.78529e-20 -1.77024e-06)
(-0.00189712 9.52489e-20 -1.77583e-06)
(-0.00188686 9.80914e-20 -1.78196e-06)
(-0.0018768 9.54228e-20 -1.78644e-06)
(-0.00186639 9.82199e-20 -1.79241e-06)
(-0.00185618 9.56217e-20 -1.7963e-06)
(-0.00184563 9.82924e-20 -1.80201e-06)
(-0.00183527 9.57924e-20 -1.80548e-06)
(-0.00182458 9.83162e-20 -1.81087e-06)
(-0.00181408 9.59251e-20 -1.81398e-06)
(-0.00180326 9.82938e-20 -1.81903e-06)
(-0.00179261 9.60145e-20 -1.82182e-06)
(-0.00178165 9.82252e-20 -1.82653e-06)
(-0.00177086 9.60575e-20 -1.82899e-06)
(-0.00175978 9.81093e-20 -1.83336e-06)
(-0.00174884 9.60525e-20 -1.83551e-06)
(-0.00173763 9.79448e-20 -1.83955e-06)
(-0.00172656 9.59978e-20 -1.84138e-06)
(-0.00171522 9.773e-20 -1.84509e-06)
(-0.00170401 9.58924e-20 -1.84662e-06)
(-0.00169255 9.74633e-20 -1.85e-06)
(-0.00168121 9.57353e-20 -1.85122e-06)
(-0.00166963 9.7143e-20 -1.85426e-06)
(-0.00165815 9.55256e-20 -1.85517e-06)
(-0.00164645 9.67674e-20 -1.85787e-06)
(-0.00163485 9.52629e-20 -1.85846e-06)
(-0.00162304 9.63356e-20 -1.86079e-06)
(-0.00161131 9.49457e-20 -1.861e-06)
(-0.00159939 9.58493e-20 -1.863e-06)
(-0.00158753 9.45708e-20 -1.86284e-06)
(-0.0015755 9.53082e-20 -1.86456e-06)
(-0.00156353 9.41365e-20 -1.86412e-06)
(-0.0015514 9.47088e-20 -1.86548e-06)
(-0.0015393 9.36448e-20 -1.86471e-06)
(-0.00152707 9.40527e-20 -1.86568e-06)
(-0.00151487 9.30929e-20 -1.86452e-06)
(-0.00150254 9.33416e-20 -1.86503e-06)
(-0.00149023 9.24778e-20 -1.86354e-06)
(-0.00147781 9.25735e-20 -1.86358e-06)
(-0.00146539 9.18011e-20 -1.86177e-06)
(-0.00145289 9.17481e-20 -1.86122e-06)
(-0.00144038 9.10622e-20 -1.85922e-06)
(-0.00142779 9.08641e-20 -1.85798e-06)
(-0.00141518 9.02626e-20 -1.85557e-06)
(-0.00140253 8.99112e-20 -1.85379e-06)
(-0.00138983 8.94115e-20 -1.85093e-06)
(-0.0013771 8.89482e-20 -1.84856e-06)
(-0.00136434 8.84521e-20 -1.84579e-06)
(-0.00135153 8.79429e-20 -1.8426e-06)
(-0.0013387 8.74171e-20 -1.83915e-06)
(-0.00132583 8.68785e-20 -1.83535e-06)
(-0.00131294 8.63236e-20 -1.83131e-06)
(-0.00130002 8.5756e-20 -1.82694e-06)
(-0.00128708 8.51723e-20 -1.82233e-06)
(-0.00127411 8.45763e-20 -1.81738e-06)
(-0.00126112 8.39644e-20 -1.81218e-06)
(-0.00124812 8.33404e-20 -1.80663e-06)
(-0.0012351 8.27009e-20 -1.80082e-06)
(-0.00122206 8.20496e-20 -1.79464e-06)
(-0.00120901 8.13832e-20 -1.7882e-06)
(-0.00119596 8.07055e-20 -1.78138e-06)
(-0.00118289 8.0013e-20 -1.77428e-06)
(-0.00116983 7.93096e-20 -1.76681e-06)
(-0.00115676 7.8592e-20 -1.75905e-06)
(-0.00114369 7.78638e-20 -1.75091e-06)
(-0.00113062 7.7122e-20 -1.74248e-06)
(-0.00111756 7.63702e-20 -1.73367e-06)
(-0.00110451 7.56054e-20 -1.72455e-06)
(-0.00109147 7.48309e-20 -1.71504e-06)
(-0.00107845 7.40443e-20 -1.70522e-06)
(-0.00106544 7.32485e-20 -1.69503e-06)
(-0.00105245 7.24412e-20 -1.68451e-06)
(-0.00103948 7.16254e-20 -1.67362e-06)
(-0.00102654 7.0799e-20 -1.6624e-06)
(-0.00101363 6.99646e-20 -1.65083e-06)
(-0.00100075 6.91204e-20 -1.63893e-06)
(-0.000987909 6.82688e-20 -1.62668e-06)
(-0.000975101 6.74084e-20 -1.6141e-06)
(-0.000962334 6.65412e-20 -1.60119e-06)
(-0.000949611 6.56663e-20 -1.58795e-06)
(-0.000936934 6.47851e-20 -1.57439e-06)
(-0.000924306 6.38972e-20 -1.56052e-06)
(-0.000911732 6.30038e-20 -1.54633e-06)
(-0.000899212 6.21048e-20 -1.53186e-06)
(-0.000886752 6.12008e-20 -1.51704e-06)
(-0.000874351 6.02923e-20 -1.50202e-06)
(-0.000862016 5.93797e-20 -1.48654e-06)
(-0.000849748 5.84636e-20 -1.47103e-06)
(-0.00083755 5.75441e-20 -1.45503e-06)
(-0.000825427 5.66222e-20 -1.43899e-06)
(-0.000813374 5.56981e-20 -1.42282e-06)
(-0.000801405 5.47718e-20 -1.40568e-06)
(-0.000789518 5.38443e-20 -1.3888e-06)
(-0.000777714 5.29163e-20 -1.37193e-06)
(-0.000765995 5.19878e-20 -1.3547e-06)
(-0.000754366 5.10594e-20 -1.33725e-06)
(-0.000742829 5.01316e-20 -1.31958e-06)
(-0.000731387 4.92047e-20 -1.30174e-06)
(-0.000720041 4.82794e-20 -1.28374e-06)
(-0.000708795 4.7356e-20 -1.2656e-06)
(-0.000697649 4.6435e-20 -1.24731e-06)
(-0.000686608 4.55168e-20 -1.22892e-06)
(-0.000675672 4.4602e-20 -1.21041e-06)
(-0.000664844 4.36908e-20 -1.19183e-06)
(-0.000654124 4.27838e-20 -1.17315e-06)
(-0.000643517 4.18813e-20 -1.15442e-06)
(-0.000633022 4.09838e-20 -1.13562e-06)
(-0.000622643 4.00916e-20 -1.11681e-06)
(-0.000612378 3.92052e-20 -1.09794e-06)
(-0.000602232 3.83249e-20 -1.07911e-06)
(-0.000592204 3.74511e-20 -1.06023e-06)
(-0.000582298 3.65841e-20 -1.04145e-06)
(-0.00057251 3.57242e-20 -1.02259e-06)
(-0.000562848 3.48719e-20 -1.00394e-06)
(-0.000553304 3.40273e-20 -9.85143e-07)
(-0.000543891 3.31908e-20 -9.6673e-07)
(-0.000534594 3.23626e-20 -9.47987e-07)
(-0.000525432 3.15431e-20 -9.30009e-07)
(-0.000516381 3.0732e-20 -9.1125e-07)
(-0.000507476 2.99303e-20 -8.94041e-07)
(-0.000498665 2.91372e-20 -8.75196e-07)
(-0.000490019 2.8353e-20 -8.59416e-07)
(-0.000481441 2.75794e-20 -8.40526e-07)
(-0.000473002 2.68063e-20 -8.31306e-07)
(-0.000466911 2.65211e-20 -8.44805e-07)
(-0.000461651 2.53193e-20 -8.66266e-07)
(-0.000456184 2.53126e-20 -8.85978e-07)
(-0.000450751 2.43619e-20 -8.93521e-07)
(-0.000445218 2.4075e-20 -9.01992e-07)
(-0.000439687 2.3502e-20 -9.02281e-07)
(-0.000434143 2.30181e-20 -9.0013e-07)
(-0.000428616 2.25098e-20 -8.93976e-07)
(-0.000423111 2.20051e-20 -8.85938e-07)
(-0.000417639 2.15037e-20 -8.76506e-07)
(-0.000412203 2.10057e-20 -8.66212e-07)
(-0.000406808 2.0511e-20 -8.55052e-07)
(-0.000401458 2.00198e-20 -8.43533e-07)
(-0.000396154 1.9532e-20 -8.3152e-07)
(-0.000390902 1.90473e-20 -8.18911e-07)
(-0.000385702 1.85664e-20 -8.06456e-07)
(-0.000380555 1.8089e-20 -7.93801e-07)
(-0.000375463 1.76151e-20 -7.80968e-07)
(-0.000370426 1.71449e-20 -7.68046e-07)
(-0.000365447 1.66784e-20 -7.55081e-07)
(-0.000360525 1.62156e-20 -7.42105e-07)
(-0.000355661 1.57567e-20 -7.2914e-07)
(-0.000350856 1.53017e-20 -7.16208e-07)
(-0.000346111 1.48506e-20 -7.03333e-07)
(-0.000341425 1.44036e-20 -6.90529e-07)
(-0.000336798 1.39607e-20 -6.77806e-07)
(-0.000332232 1.35219e-20 -6.65178e-07)
(-0.000327724 1.30874e-20 -6.52652e-07)
(-0.000323277 1.26571e-20 -6.40239e-07)
(-0.00031889 1.22311e-20 -6.27946e-07)
(-0.000314562 1.18095e-20 -6.1578e-07)
(-0.000310293 1.13923e-20 -6.03748e-07)
(-0.000306084 1.09796e-20 -5.91855e-07)
(-0.000301933 1.05714e-20 -5.80106e-07)
(-0.000297841 1.01677e-20 -5.68505e-07)
(-0.000293807 9.76863e-21 -5.57056e-07)
(-0.000289832 9.37414e-21 -5.45759e-07)
(-0.000285913 8.98435e-21 -5.34629e-07)
(-0.000282053 8.59919e-21 -5.23653e-07)
(-0.000278247 8.21881e-21 -5.12855e-07)
(-0.0002745 7.84307e-21 -5.02208e-07)
(-0.000270805 7.47218e-21 -4.91751e-07)
(-0.00026717 7.1059e-21 -4.81441e-07)
(-0.000263583 6.74455e-21 -4.71337e-07)
(-0.000260058 6.3877e-21 -4.61382e-07)
(-0.000256576 6.03587e-21 -4.51642e-07)
(-0.000253159 5.68828e-21 -4.42075e-07)
(-0.000249777 5.3458e-21 -4.32725e-07)
(-0.000246468 5.00706e-21 -4.23587e-07)
(-0.00024318 4.67355e-21 -4.14738e-07)
(-0.000239976 4.34266e-21 -4.06007e-07)
(-0.000236774 4.01719e-21 -3.98104e-07)
(-0.000233669 3.69241e-21 -3.89466e-07)
(-0.000230545 3.37204e-21 -3.83737e-07)
(-0.000227521 3.05421e-21 -3.75129e-07)
(-0.00022446 2.72528e-21 -3.72641e-07)
(-0.000221501 2.42282e-21 -3.63666e-07)
(-0.000218419 2.05925e-21 -3.73523e-07)
(-0.000215576 1.78797e-21 -3.48107e-07)
(-0.000212177 1.37467e-21 -4.21283e-07)
(-0.00020981 1.08277e-21 -3.42678e-07)
(-0.000203656 1.03112e-21 -6.55443e-07)
)
;
    }
}


// ************************************************************************* //
