/*--------------------------------*- C++ -*----------------------------------*\
| =========                 |                                                 |
| \\      /  F ield         | OpenFOAM: The Open Source CFD Toolbox           |
|  \\    /   O peration     | Version:  v2012                                 |
|   \\  /    A nd           | Website:  www.openfoam.com                      |
|    \\/     M anipulation  |                                                 |
\*---------------------------------------------------------------------------*/
FoamFile
{
    version     2.0;
    format      ascii;
    class       volScalarField;
    location    "80";
    object      epsilon;
}
// * * * * * * * * * * * * * * * * * * * * * * * * * * * * * * * * * * * * * //

dimensions      [0 2 -3 0 0 0 0];


internalField   nonuniform List<scalar> 
25248
(
0.110849
0.225334
0.340404
0.441305
0.50711
0.534564
0.535803
0.50772
0.466988
0.424941
0.383555
0.345623
0.312733
0.284569
0.260527
0.239987
0.222359
0.207147
0.193922
0.182373
0.172239
0.163294
0.155354
0.148271
0.14192
0.1362
0.131027
0.126333
0.122059
0.118151
0.114572
0.111277
0.108246
0.105441
0.102844
0.100433
0.0981906
0.0961003
0.0941465
0.092318
0.0906
0.0889852
0.0874595
0.0860193
0.0846505
0.083354
0.0821142
0.0809367
0.0798036
0.0787253
0.0776812
0.0766848
0.0757167
0.0747863
0.0738886
0.0730167
0.0721674
0.0713389
0.0705282
0.0697348
0.068956
0.0681926
0.0674416
0.0667048
0.0659791
0.0652667
0.0645647
0.0638755
0.0631965
0.0625302
0.0618746
0.0612324
0.0606015
0.0599861
0.0593832
0.0587984
0.058229
0.0576791
0.0571501
0.0566419
0.056159
0.0557029
0.0552731
0.0548771
0.0545145
0.0541839
0.0538916
0.0536348
0.0534249
0.0532514
0.0531362
0.0530513
0.0530432
0.0530723
0.0531447
0.0532641
0.0534305
0.0536407
0.0538912
0.0541778
0.054495
0.0548372
0.0551979
0.0555708
0.0559492
0.0563285
0.0566985
0.057054
0.057389
0.0576995
0.0579801
0.0582275
0.0584372
0.0586084
0.0587341
0.0588205
0.0588507
0.0588318
0.0587732
0.0586677
0.0585112
0.0583065
0.0580506
0.0577496
0.0573942
0.056991
0.0565471
0.0560657
0.0555478
0.0549938
0.0544045
0.0537812
0.053126
0.052441
0.0517288
0.0509917
0.0502322
0.0494528
0.0486559
0.0478436
0.0470182
0.0461818
0.0453365
0.0444841
0.0436266
0.0427658
0.0419034
0.0410408
0.0401798
0.0393217
0.0384677
0.037619
0.0367771
0.0359429
0.0351171
0.0343007
0.033494
0.0326981
0.0319136
0.0311414
0.0303819
0.0296356
0.0289027
0.0281835
0.0274785
0.0267876
0.0261111
0.0254491
0.0248016
0.0241687
0.0235504
0.0229466
0.0223573
0.0217823
0.0212216
0.020675
0.0201424
0.0196235
0.0191182
0.0186263
0.0181475
0.0176817
0.0172285
0.0167879
0.0163594
0.0159429
0.015538
0.0151446
0.0147623
0.014391
0.0140303
0.01368
0.0133397
0.0130094
0.0126886
0.0123772
0.0120749
0.0117814
0.0114965
0.0112199
0.0109515
0.010691
0.010438
0.0101925
0.00995428
0.00972298
0.0094985
0.0092806
0.00906906
0.00886371
0.00866436
0.00847083
0.00828295
0.00810051
0.00792336
0.00775135
0.00758429
0.00742205
0.00726448
0.00711142
0.00696272
0.00681826
0.00667791
0.00654152
0.006409
0.00628019
0.00615501
0.00603329
0.00591498
0.00579995
0.00568812
0.00557933
0.00547357
0.00537067
0.00527056
0.00517318
0.00507844
0.00498623
0.00489648
0.00480914
0.00472411
0.00464132
0.00456073
0.00448225
0.0044058
0.00433135
0.00425882
0.00418817
0.00411932
0.00405223
0.00398685
0.00392312
0.00386099
0.00380043
0.00374139
0.00368379
0.00362764
0.00357285
0.00351942
0.00346729
0.00341642
0.00336678
0.00331834
0.00327104
0.00322489
0.00317983
0.00313582
0.00309285
0.00305089
0.0030099
0.00296985
0.00293074
0.00289251
0.00285514
0.00281863
0.00278294
0.00274804
0.00271394
0.00268058
0.00264794
0.00261603
0.00258481
0.00255426
0.00252438
0.00249513
0.0024665
0.00243847
0.00241102
0.00238416
0.00235784
0.00233207
0.00230682
0.00228209
0.00225784
0.00223408
0.0022108
0.00218797
0.00216559
0.00214363
0.00212211
0.00210099
0.00208026
0.00205994
0.00203999
0.0020204
0.00200118
0.0019823
0.00196376
0.00194556
0.00192768
0.00191011
0.00189284
0.00187588
0.00185921
0.00184282
0.00182672
0.00181088
0.00179532
0.00178
0.00176496
0.00175016
0.00173562
0.00172132
0.00170728
0.00169346
0.00167991
0.00166658
0.00165352
0.0016407
0.00162813
0.00161581
0.00160376
0.00159197
0.00158047
0.00156922
0.00155828
0.00154766
0.00153734
0.00152735
0.00151769
0.00150839
0.00149944
0.00149086
0.00148265
0.00147484
0.00146737
0.00146029
0.00145354
0.00144715
0.00144106
0.00143523
0.00142955
0.00142398
0.00141845
0.00141291
0.00140732
0.00140159
0.00139562
0.00138931
0.00138255
0.00137522
0.00136721
0.00135837
0.00134857
0.00133775
0.00132543
0.00131165
0.00129615
0.00127867
0.00125901
0.00123702
0.00121268
0.00118608
0.00115751
0.00112737
0.0010961
0.00106396
0.00103146
0.000999889
0.000970784
0.000944342
0.000921271
0.000900641
0.000881357
0.000861889
0.000840609
0.000813781
0.000776376
0.000723746
0.00066018
0.000612241
0.00059036
0.000583403
0.00058535
0.000593099
0.000608304
0.000626328
0.000650949
0.000676602
0.000721691
0.108358
0.195617
0.27802
0.349055
0.393037
0.41239
0.408498
0.387373
0.35594
0.321765
0.287915
0.25716
0.230178
0.20685
0.186773
0.169496
0.154601
0.141683
0.130426
0.120539
0.111823
0.104118
0.0972841
0.091196
0.0857576
0.0808775
0.0764819
0.0725086
0.0689062
0.0656282
0.0626402
0.0599041
0.0573991
0.055093
0.0529706
0.0510091
0.0491967
0.0475144
0.0459544
0.0444999
0.0431468
0.0418794
0.0406966
0.0395837
0.0385424
0.037558
0.0366351
0.0357589
0.034936
0.0341518
0.0334135
0.032709
0.0320404
0.0314073
0.030807
0.0302377
0.029694
0.0291747
0.0286775
0.028201
0.0277435
0.0273043
0.0268819
0.0264758
0.0260845
0.025708
0.0253447
0.0249947
0.0246567
0.0243307
0.0240157
0.0237116
0.0234175
0.0231341
0.0228595
0.0225954
0.0223401
0.022094
0.0218579
0.0216297
0.0214116
0.0212028
0.0210025
0.0208138
0.0206343
0.0204634
0.0203024
0.0201509
0.0200114
0.0198826
0.0197679
0.0196651
0.019579
0.0195086
0.0194533
0.0194157
0.019394
0.0193966
0.0194127
0.0194463
0.0194982
0.0195681
0.019655
0.0197573
0.0198732
0.0200009
0.0201378
0.0202816
0.0204296
0.0205795
0.0207292
0.0208753
0.0210154
0.021148
0.02127
0.0213811
0.0214781
0.0215593
0.0216248
0.0216734
0.0217049
0.0217144
0.021705
0.0216786
0.0216312
0.021563
0.0214756
0.0213697
0.021246
0.0211047
0.0209462
0.0207708
0.0205794
0.0203725
0.0201511
0.019916
0.0196683
0.0194088
0.0191387
0.0188589
0.0185704
0.0182742
0.0179711
0.0176622
0.0173482
0.0170301
0.0167086
0.0163846
0.0160587
0.0157317
0.0154042
0.0150769
0.0147503
0.0144252
0.0141019
0.0137809
0.0134626
0.0131473
0.0128354
0.0125274
0.0122236
0.0119241
0.0116293
0.0113393
0.0110543
0.0107745
0.0105
0.0102308
0.00996718
0.00970907
0.00945655
0.00920964
0.00896835
0.0087327
0.00850266
0.0082782
0.0080593
0.0078459
0.00763795
0.00743538
0.00723813
0.00704613
0.00685929
0.00667753
0.00650075
0.00632887
0.00616179
0.00599941
0.00584163
0.00568836
0.00553948
0.0053949
0.00525451
0.00511821
0.0049859
0.00485748
0.00473283
0.00461186
0.00449448
0.00438058
0.00427005
0.00416283
0.00405879
0.00395786
0.00385995
0.00376495
0.00367279
0.00358339
0.00349666
0.00341251
0.00333087
0.00325167
0.00317482
0.00310026
0.00302791
0.0029577
0.00288957
0.00282345
0.00275928
0.002697
0.00263654
0.00257785
0.00252087
0.00246555
0.00241184
0.00235968
0.00230902
0.00225983
0.00221204
0.00216562
0.00212053
0.00207671
0.00203414
0.00199276
0.00195256
0.00191347
0.00187548
0.00183854
0.00180262
0.0017677
0.00173374
0.0017007
0.00166857
0.00163731
0.0016069
0.00157731
0.00154851
0.00152048
0.0014932
0.00146664
0.00144079
0.00141561
0.00139109
0.00136721
0.00134396
0.00132131
0.00129924
0.00127773
0.00125678
0.00123636
0.00121645
0.00119705
0.00117814
0.00115969
0.00114171
0.00112417
0.00110707
0.00109038
0.0010741
0.00105822
0.00104273
0.0010276
0.00101284
0.000998434
0.000984364
0.000970631
0.000957221
0.00094412
0.000931332
0.000918835
0.000906624
0.000894696
0.00088304
0.000871645
0.00086051
0.000849621
0.000838976
0.000828568
0.00081839
0.000808432
0.000798695
0.000789164
0.000779838
0.000770717
0.000761781
0.00075304
0.000744479
0.000736103
0.000727889
0.000719859
0.000711981
0.000704268
0.000696708
0.0006893
0.000682041
0.000674922
0.000667948
0.000661108
0.0006544
0.000647821
0.000641368
0.000635037
0.000628829
0.000622733
0.000616755
0.000610886
0.000605127
0.000599475
0.00059393
0.000588485
0.000583141
0.000577903
0.000572757
0.000567714
0.000562763
0.000557915
0.000553155
0.000548499
0.000543934
0.000539472
0.000535111
0.000530843
0.000526673
0.00052263
0.00051866
0.000514814
0.000511077
0.000507456
0.000503956
0.000500577
0.000497317
0.000494183
0.000491176
0.000488302
0.000485554
0.000482938
0.000480434
0.000478057
0.000475787
0.000473622
0.000471531
0.000469487
0.000467464
0.000465455
0.000463439
0.000461406
0.000459331
0.000457186
0.000454943
0.000452572
0.000450049
0.000447352
0.000444462
0.000441366
0.000438094
0.00043455
0.000430794
0.000426855
0.000422758
0.000418535
0.000414222
0.000409836
0.00040539
0.000400871
0.000396251
0.000391361
0.000385965
0.000379886
0.000373255
0.000366606
0.000360413
0.000354975
0.000350085
0.000345382
0.000340287
0.000333821
0.000324005
0.000308049
0.00028346
0.000250862
0.000219782
0.000198758
0.000186889
0.000180664
0.000179362
0.000180474
0.000185752
0.000195438
0.000210127
0.00023406
0.101142
0.186112
0.290937
0.388943
0.451756
0.476437
0.468852
0.441195
0.401352
0.357517
0.315566
0.278499
0.246445
0.219026
0.19564
0.175665
0.15851
0.143717
0.130891
0.119731
0.109967
0.101377
0.0937855
0.0870469
0.0810437
0.0756741
0.0708542
0.0665126
0.0625899
0.0590336
0.055802
0.0528544
0.0501625
0.0476932
0.0454262
0.0433381
0.0414131
0.039632
0.0379835
0.0364515
0.0350284
0.0337002
0.0324621
0.0313019
0.030217
0.0291966
0.0282396
0.0273366
0.0264873
0.0256842
0.024926
0.0242085
0.0235279
0.0228837
0.0222716
0.021692
0.0211405
0.020616
0.0201163
0.0196399
0.0191853
0.0187514
0.0183368
0.0179408
0.0175621
0.0172003
0.0168541
0.0165234
0.0162071
0.0159052
0.0156165
0.0153413
0.0150789
0.0148292
0.0145917
0.0143673
0.0141544
0.0139548
0.0137672
0.0135925
0.0134311
0.0132822
0.0131461
0.0130234
0.0129143
0.0128194
0.0127376
0.0126702
0.0126173
0.0125784
0.0125527
0.0125431
0.0125483
0.0125649
0.0125948
0.0126381
0.0126942
0.012763
0.0128433
0.0129342
0.0130349
0.0131447
0.0132625
0.0133875
0.0135184
0.0136541
0.0137932
0.0139344
0.0140763
0.0142175
0.0143562
0.0144911
0.0146206
0.0147436
0.0148584
0.0149643
0.01506
0.0151444
0.0152165
0.0152758
0.0153222
0.0153539
0.0153712
0.0153709
0.0153595
0.0153338
0.0152934
0.0152384
0.0151694
0.0150867
0.0149907
0.0148817
0.0147603
0.0146269
0.0144822
0.0143267
0.0141612
0.0139863
0.0138027
0.0136112
0.0134125
0.0132073
0.0129962
0.01278
0.0125594
0.012335
0.0121074
0.0118772
0.011645
0.0114114
0.0111768
0.0109417
0.0107066
0.010472
0.0102383
0.010006
0.00977512
0.00954616
0.0093194
0.00909511
0.00887355
0.00865494
0.00843949
0.00822736
0.00801872
0.00781367
0.00761235
0.00741484
0.00722123
0.00703157
0.00684592
0.00666431
0.00648676
0.00631328
0.00614388
0.00597854
0.00581725
0.00565997
0.00550669
0.00535735
0.00521191
0.00507033
0.00493255
0.0047985
0.00466814
0.00454139
0.00441818
0.00429845
0.00418212
0.00406913
0.00395939
0.00385284
0.00374939
0.00364898
0.00355153
0.00345696
0.0033652
0.00327617
0.00318979
0.00310601
0.00302474
0.00294592
0.00286946
0.00279532
0.00272341
0.00265368
0.00258605
0.00252047
0.00245687
0.0023952
0.00233538
0.00227738
0.00222112
0.00216657
0.00211365
0.00206232
0.00201254
0.00196425
0.0019174
0.00187195
0.00182785
0.00178507
0.00174355
0.00170326
0.00166416
0.00162622
0.00158938
0.00155362
0.00151891
0.00148521
0.00145248
0.0014207
0.00138984
0.00135986
0.00133074
0.00130245
0.00127496
0.00124826
0.0012223
0.00119708
0.00117256
0.00114873
0.00112555
0.00110302
0.00108112
0.00105981
0.00103909
0.00101893
0.000999317
0.000980235
0.000961669
0.000943601
0.000926013
0.000908893
0.000892229
0.000876004
0.000860203
0.000844818
0.000829832
0.000815233
0.000801012
0.000787157
0.000773656
0.0007605
0.000747675
0.000735175
0.00072299
0.000711106
0.000699521
0.000688223
0.000677203
0.000666452
0.000655964
0.000645732
0.000635745
0.000625999
0.000616487
0.000607199
0.000598133
0.000589279
0.000580632
0.000572187
0.000563938
0.000555877
0.000548002
0.000540305
0.000532782
0.000525429
0.00051824
0.000511211
0.000504338
0.000497614
0.000491036
0.000484604
0.000478305
0.000472147
0.000466114
0.000460216
0.00045443
0.00044878
0.000443234
0.000437807
0.000432491
0.000427281
0.000422177
0.000417173
0.000412272
0.000407466
0.000402754
0.000398133
0.000393602
0.000389158
0.0003848
0.000380522
0.000376327
0.000372209
0.00036817
0.000364206
0.000360316
0.000356499
0.000352753
0.000349079
0.000345472
0.000341937
0.000338466
0.000335067
0.000331732
0.000328467
0.00032527
0.000322137
0.000319082
0.000316086
0.000313167
0.000310325
0.000307536
0.000304835
0.000302211
0.000299665
0.0002972
0.000294818
0.000292516
0.0002903
0.000288168
0.000286126
0.000284165
0.000282292
0.000280493
0.000278775
0.000277125
0.000275537
0.00027399
0.000272466
0.000270949
0.000269431
0.000267904
0.000266356
0.000264769
0.000263124
0.000261402
0.000259585
0.000257659
0.000255611
0.000253432
0.000251119
0.000248708
0.000246118
0.000243433
0.000240674
0.000237871
0.000235079
0.000232351
0.000229718
0.000227223
0.000224865
0.000222612
0.000220363
0.000218032
0.000215521
0.000212878
0.000210344
0.000208039
0.000205908
0.000203746
0.000201164
0.000197523
0.000191969
0.000183308
0.000170184
0.000151889
0.000129632
0.000109771
9.63829e-05
8.90815e-05
8.58875e-05
8.58768e-05
8.79627e-05
9.33655e-05
0.000101966
0.000113214
0.000130199
0.0889634
0.178659
0.319009
0.455101
0.534819
0.553876
0.535409
0.494649
0.441953
0.387309
0.338278
0.295944
0.259925
0.229495
0.203789
0.181999
0.163417
0.147473
0.133711
0.121765
0.111337
0.102186
0.0941185
0.0869737
0.0806148
0.0749366
0.0698488
0.0652744
0.0611482
0.057414
0.0540255
0.0509402
0.0481255
0.0455496
0.0431872
0.041014
0.0390118
0.0371613
0.0354492
0.0338599
0.0323837
0.031008
0.0297254
0.0285258
0.0274035
0.0263502
0.0253619
0.0244318
0.0235565
0.0227311
0.0219518
0.0212159
0.0205192
0.0198603
0.0192354
0.0186437
0.0180822
0.0175494
0.0170433
0.0165626
0.0161057
0.0156715
0.0152589
0.0148669
0.0144946
0.0141414
0.0138063
0.0134892
0.013189
0.0129059
0.0126389
0.0123883
0.0121535
0.0119343
0.0117309
0.0115431
0.0113706
0.0112142
0.0110727
0.0109469
0.0108364
0.010741
0.0106614
0.0105956
0.0105456
0.0105105
0.0104875
0.0104812
0.0104871
0.010504
0.0105327
0.0105735
0.0106256
0.0106879
0.0107595
0.0108397
0.0109278
0.0110232
0.011125
0.0112325
0.0113447
0.0114609
0.0115804
0.0117024
0.011826
0.0119504
0.0120749
0.0121984
0.0123202
0.0124392
0.0125545
0.0126652
0.0127702
0.0128687
0.0129596
0.0130425
0.0131164
0.0131808
0.0132344
0.0132773
0.0133092
0.0133289
0.013336
0.0133305
0.0133145
0.0132867
0.0132467
0.0131946
0.0131307
0.0130553
0.0129688
0.0128714
0.0127636
0.0126458
0.0125184
0.012382
0.0122372
0.0120845
0.0119244
0.0117575
0.0115846
0.011406
0.0112225
0.0110346
0.0108429
0.0106479
0.0104502
0.0102502
0.0100484
0.00984541
0.00964155
0.0094372
0.00923285
0.00902894
0.00882579
0.00862372
0.008423
0.00822391
0.00802671
0.00783164
0.00763893
0.00744876
0.00726132
0.00707676
0.00689522
0.0067168
0.00654161
0.00636974
0.00620126
0.00603622
0.00587467
0.00571664
0.00556215
0.00541121
0.00526383
0.00511999
0.00497969
0.0048429
0.00470958
0.00457972
0.00445327
0.00433019
0.00421043
0.00409394
0.00398067
0.00387055
0.00376354
0.00365957
0.00355857
0.00346049
0.00336525
0.00327281
0.00318307
0.003096
0.0030115
0.00292953
0.00285002
0.00277289
0.00269809
0.00262555
0.0025552
0.00248699
0.00242086
0.00235674
0.00229457
0.00223431
0.00217588
0.00211924
0.00206432
0.00201109
0.00195948
0.00190945
0.00186094
0.00181391
0.00176832
0.00172411
0.00168124
0.00163967
0.00159936
0.00156026
0.00152235
0.00148557
0.0014499
0.0014153
0.00138173
0.00134916
0.00131756
0.00128689
0.00125713
0.00122825
0.00120022
0.001173
0.00114659
0.00112093
0.00109602
0.00107183
0.00104834
0.00102552
0.00100336
0.000981821
0.000960898
0.000940566
0.000920806
0.000901601
0.000882933
0.000864785
0.000847139
0.000829981
0.000813296
0.000797066
0.000781281
0.000765925
0.000750983
0.000736444
0.000722296
0.000708526
0.000695122
0.000682074
0.000669369
0.000656998
0.00064495
0.000633216
0.000621786
0.000610652
0.000599802
0.00058923
0.000578927
0.000568883
0.000559094
0.00054955
0.000540244
0.000531168
0.000522317
0.000513684
0.00050526
0.000497042
0.000489023
0.000481196
0.000473558
0.0004661
0.000458818
0.000451708
0.000444765
0.000437982
0.000431357
0.000424883
0.000418557
0.000412376
0.000406334
0.000400427
0.000394652
0.000389004
0.00038348
0.000378079
0.000372792
0.000367623
0.000362559
0.000357612
0.000352757
0.00034802
0.000343367
0.000338817
0.000334359
0.000329992
0.000325715
0.000321522
0.000317414
0.000313388
0.000309441
0.00030557
0.000301775
0.000298053
0.000294403
0.000290822
0.000287309
0.000283862
0.00028048
0.000277161
0.000273904
0.000270708
0.000267572
0.000264495
0.000261475
0.000258513
0.000255607
0.000252758
0.000249965
0.000247226
0.000244547
0.000241917
0.000239355
0.000236834
0.000234391
0.000231985
0.000229643
0.00022737
0.000225156
0.000223005
0.000220918
0.000218896
0.000216939
0.00021505
0.000213227
0.000211472
0.000209782
0.000208159
0.000206594
0.00020509
0.000203637
0.000202229
0.000200848
0.000199482
0.000198117
0.00019675
0.000195372
0.000193972
0.000192537
0.000191051
0.000189499
0.000187867
0.000186144
0.000184321
0.000182393
0.000180357
0.000178246
0.000175984
0.000173656
0.000171272
0.000168857
0.000166454
0.000164108
0.000161845
0.000159699
0.000157673
0.00015576
0.000153906
0.000152079
0.000150254
0.000148524
0.000146944
0.000145491
0.000144041
0.000142365
0.00014002
0.000136457
0.000131052
0.000123116
0.000112046
9.78929e-05
8.20903e-05
6.91402e-05
6.08501e-05
5.69656e-05
5.60502e-05
5.7056e-05
6.01609e-05
6.56689e-05
7.32979e-05
8.2208e-05
9.49647e-05
0.0752242
0.186079
0.372371
0.537036
0.603588
0.600863
0.56713
0.511267
0.446829
0.384703
0.331566
0.287288
0.250705
0.220467
0.195321
0.17424
0.156402
0.14117
0.128061
0.116689
0.106761
0.0980446
0.0903523
0.0835318
0.0774558
0.0720206
0.0671399
0.0627413
0.0587639
0.0551556
0.0518731
0.0488776
0.046138
0.043625
0.0413152
0.0391866
0.0372213
0.035402
0.0337154
0.0321478
0.0306891
0.0293284
0.0280578
0.0268687
0.025755
0.0247099
0.0237281
0.0228045
0.0219348
0.0211152
0.0203417
0.0196118
0.018922
0.0182703
0.0176538
0.0170711
0.0165198
0.0159985
0.0155055
0.0150395
0.0145993
0.0141838
0.0137919
0.0134228
0.0130758
0.0127502
0.0124453
0.0121608
0.0118958
0.0116502
0.0114231
0.0112148
0.0110243
0.0108516
0.0106964
0.0105581
0.0104366
0.0103317
0.0102425
0.0101694
0.0101103
0.0100669
0.0100377
0.0100196
0.0100186
0.0100267
0.0100453
0.0100752
0.0101157
0.0101654
0.0102235
0.0102893
0.0103622
0.0104415
0.0105264
0.0106161
0.0107099
0.0108071
0.0109071
0.0110092
0.0111128
0.0112173
0.0113221
0.0114265
0.0115301
0.0116322
0.0117323
0.0118299
0.0119243
0.0120149
0.012101
0.012182
0.0122575
0.0123263
0.0123881
0.0124426
0.012489
0.0125269
0.012555
0.0125742
0.0125836
0.0125818
0.0125711
0.0125495
0.0125177
0.0124756
0.0124233
0.0123608
0.0122882
0.0122057
0.0121137
0.0120123
0.0119021
0.0117833
0.0116564
0.0115217
0.0113799
0.0112312
0.0110763
0.0109157
0.0107498
0.0105792
0.0104043
0.0102258
0.010044
0.00985952
0.00967275
0.00948416
0.0092942
0.00910326
0.00891172
0.00871994
0.00852836
0.00833732
0.00814712
0.00795806
0.00777038
0.00758434
0.00740017
0.00721808
0.00703826
0.00686089
0.00668613
0.00651411
0.00634495
0.00617876
0.00601564
0.00585564
0.00569885
0.0055453
0.00539503
0.00524807
0.00510444
0.00496416
0.0048272
0.00469358
0.00456327
0.00443625
0.00431249
0.00419197
0.00407463
0.00396046
0.00384939
0.00374138
0.00363637
0.00353432
0.00343517
0.00333886
0.00324532
0.00315451
0.00306636
0.00298081
0.0028978
0.00281726
0.00273913
0.00266335
0.00258986
0.0025186
0.0024495
0.00238251
0.00231757
0.00225461
0.00219359
0.00213444
0.00207711
0.00202154
0.00196769
0.00191549
0.00186491
0.00181588
0.00176837
0.00172231
0.00167768
0.00163442
0.00159249
0.00155184
0.00151244
0.00147424
0.00143721
0.00140132
0.00136651
0.00133276
0.00130003
0.00126829
0.00123751
0.00120766
0.0011787
0.0011506
0.00112335
0.0010969
0.00107125
0.00104634
0.00102218
0.000998718
0.000975948
0.000953843
0.00093238
0.000911539
0.0008913
0.000871643
0.00085255
0.000834003
0.000815983
0.000798474
0.00078146
0.000764924
0.000748852
0.000733228
0.000718039
0.00070327
0.000688908
0.000674941
0.000661356
0.00064814
0.000635284
0.000622774
0.0006106
0.000598753
0.000587221
0.000575995
0.000565066
0.000554424
0.00054406
0.000533967
0.000524135
0.000514558
0.000505225
0.000496131
0.000487269
0.000478631
0.000470211
0.000462001
0.000453997
0.000446191
0.000438577
0.00043115
0.000423904
0.000416834
0.000409935
0.000403201
0.000396628
0.000390211
0.000383946
0.000377827
0.000371852
0.000366014
0.000360311
0.000354739
0.000349293
0.000343971
0.000338768
0.000333681
0.000328707
0.000323844
0.000319084
0.000314432
0.000309875
0.000305423
0.000301056
0.000296796
0.000292611
0.00028852
0.000284513
0.000280587
0.000276743
0.000272976
0.000269285
0.000265668
0.000262123
0.000258647
0.00025524
0.000251898
0.000248621
0.000245406
0.000242253
0.000239159
0.000236125
0.000233147
0.000230224
0.000227357
0.000224542
0.000221782
0.000219072
0.000216414
0.000213806
0.000211249
0.000208741
0.000206282
0.000203876
0.000201512
0.00019921
0.00019694
0.000194748
0.00019257
0.000190465
0.000188412
0.00018641
0.000184463
0.00018257
0.000180732
0.00017895
0.000177224
0.000175553
0.000173939
0.000172379
0.000170873
0.000169416
0.000168007
0.00016664
0.000165307
0.000163996
0.000162694
0.000161393
0.000160087
0.000158771
0.000157436
0.000156068
0.000154655
0.000153185
0.000151647
0.00015003
0.000148329
0.000146539
0.000144659
0.000142718
0.000140645
0.000138519
0.000136347
0.000134147
0.000131954
0.000129801
0.000127709
0.000125702
0.000123784
0.000121953
0.000120183
0.000118472
0.000116826
0.000115315
0.000113932
0.000112616
0.000111243
0.000109569
0.000107191
0.000103679
9.85992e-05
9.15747e-05
8.23968e-05
7.13895e-05
6.01019e-05
5.14654e-05
4.63676e-05
4.45077e-05
4.46099e-05
4.6289e-05
4.97729e-05
5.49519e-05
6.15572e-05
6.87758e-05
7.87719e-05
0.0859567
0.247528
0.484102
0.609003
0.62814
0.593676
0.527238
0.450011
0.376519
0.316975
0.269984
0.233037
0.203744
0.180175
0.160886
0.144843
0.131274
0.119644
0.109569
0.100741
0.0929572
0.0860544
0.079899
0.0743826
0.0694161
0.0649265
0.0608526
0.0571436
0.0537564
0.0506546
0.0478074
0.045187
0.0427713
0.0405385
0.0384717
0.0365546
0.0347735
0.0331156
0.0315703
0.0301274
0.0287786
0.0275156
0.0263318
0.0252208
0.0241771
0.0231958
0.0222724
0.0214029
0.0205836
0.0198116
0.0190836
0.0183974
0.0177501
0.01714
0.0165651
0.0160237
0.0155142
0.0150353
0.0145856
0.014164
0.0137694
0.0134007
0.0130572
0.012738
0.0124422
0.0121692
0.0119183
0.0116889
0.01148
0.011291
0.0111214
0.0109705
0.0108375
0.0107217
0.0106226
0.0105398
0.0104718
0.010418
0.0103784
0.0103522
0.0103365
0.0103364
0.0103441
0.0103613
0.0103889
0.0104252
0.0104693
0.0105204
0.0105779
0.0106413
0.0107095
0.010782
0.0108581
0.0109372
0.0110187
0.0111019
0.0111862
0.0112712
0.0113564
0.0114412
0.0115251
0.0116078
0.0116889
0.0117678
0.0118444
0.011918
0.0119885
0.0120554
0.0121185
0.0121771
0.0122311
0.0122798
0.012323
0.0123597
0.0123901
0.0124134
0.0124293
0.0124377
0.0124368
0.012429
0.0124127
0.0123871
0.0123528
0.0123095
0.0122573
0.0121962
0.0121264
0.0120477
0.0119605
0.0118647
0.0117608
0.0116488
0.0115293
0.0114025
0.0112687
0.0111283
0.0109818
0.0108296
0.010672
0.0105096
0.0103427
0.0101719
0.00999766
0.00982031
0.00964035
0.0094582
0.00927429
0.00908902
0.00890277
0.00871591
0.00852879
0.00834176
0.00815517
0.00796934
0.00778453
0.00760101
0.00741903
0.0072388
0.00706053
0.0068844
0.0067106
0.00653928
0.00637058
0.00620462
0.00604152
0.00588135
0.00572421
0.00557015
0.00541924
0.00527152
0.00512701
0.00498573
0.00484771
0.00471294
0.00458142
0.00445314
0.00432808
0.00420621
0.00408752
0.00397195
0.00385948
0.00375007
0.00364366
0.00354021
0.00343967
0.00334198
0.00324709
0.00315495
0.00306548
0.00297865
0.00289437
0.00281261
0.00273328
0.00265635
0.00258173
0.00250938
0.00243923
0.00237122
0.00230529
0.00224139
0.00217946
0.00211944
0.00206127
0.00200491
0.00195029
0.00189737
0.00184609
0.0017964
0.00174825
0.00170161
0.00165641
0.00161261
0.00157017
0.00152905
0.0014892
0.00145058
0.00141315
0.00137688
0.00134173
0.00130765
0.00127462
0.00124261
0.00121157
0.00118147
0.00115229
0.001124
0.00109656
0.00106995
0.00104414
0.0010191
0.000994815
0.00097125
0.000948391
0.000926201
0.000904671
0.000883774
0.000863489
0.000843798
0.00082468
0.000806117
0.000788091
0.000770584
0.000753579
0.000737061
0.000721013
0.000705421
0.00069027
0.000675545
0.000661233
0.00064732
0.000633795
0.000620644
0.000607856
0.000595419
0.000583322
0.000571555
0.000560107
0.000548968
0.000538128
0.000527579
0.00051731
0.000507314
0.000497581
0.000488105
0.000478875
0.000469888
0.000461131
0.0004526
0.000444289
0.000436189
0.000428295
0.000420601
0.000413099
0.000405786
0.000398654
0.000391698
0.000384914
0.000378296
0.000371838
0.000365537
0.000359387
0.000353385
0.000347525
0.000341803
0.000336217
0.00033076
0.00032543
0.000320223
0.000315136
0.000310164
0.000305305
0.000300556
0.000295911
0.000291372
0.00028693
0.000282589
0.000278338
0.000274185
0.000270113
0.00026614
0.000262238
0.000258424
0.000254689
0.000251031
0.000247449
0.00024394
0.000240502
0.000237134
0.000233832
0.000230596
0.000227424
0.000224314
0.000221264
0.000218273
0.000215339
0.000212462
0.000209638
0.000206869
0.000204151
0.000201484
0.000198867
0.0001963
0.00019378
0.000191308
0.000188883
0.000186504
0.000184172
0.000181883
0.000179644
0.000177443
0.000175299
0.000173182
0.000171141
0.00016911
0.000167142
0.000165221
0.000163347
0.000161521
0.000159743
0.000158013
0.000156331
0.000154699
0.000153114
0.000151578
0.000150088
0.000148644
0.000147242
0.00014588
0.000144553
0.000143254
0.000141972
0.000140698
0.000139424
0.000138145
0.000136857
0.000135551
0.000134216
0.000132842
0.000131418
0.000129934
0.000128384
0.000126761
0.000125061
0.000123286
0.000121459
0.000119516
0.000117528
0.000115502
0.000113451
0.000111404
0.000109387
0.000107414
0.000105503
0.000103657
0.000101876
0.000100149
9.84854e-05
9.6899e-05
9.54314e-05
9.40569e-05
9.27101e-05
9.12794e-05
8.95331e-05
8.71384e-05
8.37671e-05
7.91292e-05
7.30336e-05
6.54741e-05
5.68644e-05
4.87641e-05
4.28783e-05
3.97731e-05
3.90065e-05
3.9589e-05
4.16415e-05
4.51339e-05
4.98521e-05
5.55852e-05
6.15812e-05
6.9694e-05
0.22484
0.469907
0.61836
0.607694
0.543235
0.452874
0.360275
0.287332
0.234454
0.195924
0.167742
0.146814
0.130895
0.118411
0.108344
0.0999791
0.0928407
0.0866189
0.0810967
0.0761537
0.071669
0.0675651
0.0637867
0.0602935
0.0570541
0.0540428
0.0512374
0.0486202
0.046175
0.043888
0.041747
0.0397408
0.0378603
0.0360954
0.0344384
0.0328814
0.0314178
0.030041
0.0287452
0.0275249
0.0263751
0.0252914
0.0242695
0.0233058
0.0223968
0.0215397
0.0207313
0.0199694
0.0192513
0.0185753
0.0179387
0.0173404
0.0167782
0.0162512
0.0157575
0.0152962
0.0148658
0.0144653
0.0140932
0.0137491
0.0134314
0.0131392
0.0128717
0.0126278
0.0124066
0.0122068
0.0120276
0.0118679
0.0117272
0.0116041
0.0114984
0.0114089
0.0113348
0.0112747
0.0112287
0.0111955
0.011174
0.0111634
0.011165
0.0111738
0.0111908
0.0112165
0.0112493
0.0112881
0.0113325
0.0113818
0.0114353
0.0114923
0.0115521
0.0116143
0.0116782
0.0117433
0.0118089
0.0118748
0.0119403
0.0120049
0.0120685
0.0121306
0.0121909
0.0122491
0.0123048
0.0123577
0.0124077
0.0124545
0.012498
0.0125375
0.0125733
0.0126051
0.0126327
0.0126558
0.012674
0.0126872
0.0126953
0.0126968
0.0126931
0.0126836
0.0126675
0.0126447
0.0126144
0.0125773
0.012533
0.012481
0.0124214
0.0123541
0.0122792
0.0121966
0.0121063
0.0120084
0.0119032
0.0117908
0.0116715
0.0115454
0.0114129
0.0112742
0.0111296
0.0109796
0.0108244
0.0106644
0.0105
0.0103315
0.0101595
0.00998427
0.00980622
0.00962577
0.00944331
0.00925922
0.00907389
0.00888766
0.00870089
0.00851391
0.00832707
0.00814066
0.00795499
0.00777033
0.00758694
0.00740506
0.00722491
0.00704669
0.00687058
0.00669676
0.00652538
0.00635657
0.00619047
0.00602718
0.00586681
0.00570942
0.00555509
0.00540388
0.00525582
0.00511096
0.00496932
0.00483092
0.00469575
0.00456383
0.00443513
0.00430965
0.00418736
0.00406824
0.00395226
0.00383937
0.00372954
0.00362273
0.00351888
0.00341795
0.00331988
0.00322463
0.00313212
0.00304232
0.00295515
0.00287057
0.0027885
0.00270889
0.00263169
0.00255682
0.00248422
0.00241385
0.00234564
0.00227952
0.00221544
0.00215335
0.00209318
0.00203488
0.0019784
0.00192368
0.00187067
0.00181931
0.00176956
0.00172136
0.00167467
0.00162944
0.00158563
0.00154318
0.00150206
0.00146223
0.00142363
0.00138624
0.00135001
0.0013149
0.00128088
0.00124792
0.00121597
0.00118501
0.001155
0.00112591
0.00109772
0.00107038
0.00104387
0.00101817
0.000993253
0.000969084
0.000945644
0.000922905
0.000900853
0.000879451
0.000858689
0.000838543
0.000818991
0.000800015
0.000781596
0.000763715
0.000746355
0.000729499
0.00071313
0.000697233
0.000681792
0.000666792
0.000652219
0.000638059
0.0006243
0.000610927
0.000597929
0.000585294
0.00057301
0.000561065
0.00054945
0.000538154
0.000527165
0.000516476
0.000506076
0.000495957
0.000486108
0.000476523
0.000467193
0.00045811
0.000449265
0.000440654
0.000432265
0.000424094
0.000416135
0.000408381
0.000400824
0.00039346
0.000386282
0.000379284
0.000372462
0.00036581
0.000359322
0.000352995
0.000346822
0.000340799
0.000334923
0.000329187
0.00032359
0.000318125
0.00031279
0.000307579
0.000302491
0.000297521
0.000292666
0.000287922
0.000283286
0.000278755
0.000274326
0.000269997
0.000265762
0.000261623
0.000257572
0.000253614
0.000249733
0.000245948
0.000242231
0.000238598
0.000235042
0.000231559
0.000228149
0.000224809
0.000221537
0.000218332
0.000215191
0.000212112
0.000209095