/*--------------------------------*- C++ -*----------------------------------*\
| =========                 |                                                 |
| \\      /  F ield         | OpenFOAM: The Open Source CFD Toolbox           |
|  \\    /   O peration     | Version:  v2012                                 |
|   \\  /    A nd           | Website:  www.openfoam.com                      |
|    \\/     M anipulation  |                                                 |
\*---------------------------------------------------------------------------*/
FoamFile
{
    version     2.0;
    format      ascii;
    class       volScalarField;
    location    "80";
    object      nut;
}
// * * * * * * * * * * * * * * * * * * * * * * * * * * * * * * * * * * * * * //

dimensions      [0 2 -1 0 0 0 0];


internalField   nonuniform List<scalar> 
25248
(
6.68481e-05
8.46813e-05
9.71651e-05
0.000105948
0.000110972
0.000112939
0.000113026
0.000111016
0.000107964
0.000104622
0.000101109
9.76591e-05
9.44575e-05
9.15323e-05
8.88783e-05
8.64784e-05
8.4307e-05
8.23389e-05
8.05479e-05
7.8916e-05
7.74264e-05
7.60622e-05
7.48088e-05
7.36542e-05
7.25871e-05
7.15986e-05
7.06804e-05
6.98261e-05
6.90295e-05
6.82848e-05
6.75883e-05
6.69341e-05
6.63207e-05
6.57429e-05
6.51986e-05
6.46852e-05
6.42e-05
6.37412e-05
6.33062e-05
6.28937e-05
6.25011e-05
6.21276e-05
6.17705e-05
6.14295e-05
6.1102e-05
6.07884e-05
6.04855e-05
6.0195e-05
5.99128e-05
5.96417e-05
5.93769e-05
5.91219e-05
5.8872e-05
5.86299e-05
5.83944e-05
5.81638e-05
5.79374e-05
5.77148e-05
5.74953e-05
5.7279e-05
5.70649e-05
5.68535e-05
5.66441e-05
5.6437e-05
5.62316e-05
5.60285e-05
5.58269e-05
5.56276e-05
5.54297e-05
5.52343e-05
5.50405e-05
5.48494e-05
5.46604e-05
5.44748e-05
5.42916e-05
5.41128e-05
5.39376e-05
5.37673e-05
5.36024e-05
5.3443e-05
5.32907e-05
5.31461e-05
5.3009e-05
5.28821e-05
5.27654e-05
5.26585e-05
5.25636e-05
5.248e-05
5.24115e-05
5.23547e-05
5.23169e-05
5.2289e-05
5.22864e-05
5.22959e-05
5.23197e-05
5.23588e-05
5.24133e-05
5.24819e-05
5.25635e-05
5.26565e-05
5.27591e-05
5.28693e-05
5.2985e-05
5.3104e-05
5.32243e-05
5.33443e-05
5.34608e-05
5.35723e-05
5.3677e-05
5.37736e-05
5.38607e-05
5.39371e-05
5.40018e-05
5.40545e-05
5.40931e-05
5.41196e-05
5.41289e-05
5.41231e-05
5.41051e-05
5.40727e-05
5.40246e-05
5.39615e-05
5.38824e-05
5.37892e-05
5.36786e-05
5.35526e-05
5.34132e-05
5.32612e-05
5.30967e-05
5.29196e-05
5.27299e-05
5.25277e-05
5.23136e-05
5.20878e-05
5.18509e-05
5.16034e-05
5.13459e-05
5.1079e-05
5.08031e-05
5.05188e-05
5.02266e-05
4.9927e-05
4.96205e-05
4.93075e-05
4.89887e-05
4.86643e-05
4.8335e-05
4.8001e-05
4.7663e-05
4.73212e-05
4.69761e-05
4.66281e-05
4.62776e-05
4.5925e-05
4.55706e-05
4.52147e-05
4.48574e-05
4.44992e-05
4.41405e-05
4.37816e-05
4.34227e-05
4.30642e-05
4.27062e-05
4.23491e-05
4.19929e-05
4.1638e-05
4.12845e-05
4.09326e-05
4.05825e-05
4.02343e-05
3.98882e-05
3.95444e-05
3.92029e-05
3.88639e-05
3.85275e-05
3.81939e-05
3.7863e-05
3.75351e-05
3.72101e-05
3.68882e-05
3.65694e-05
3.62538e-05
3.59414e-05
3.56323e-05
3.53265e-05
3.50241e-05
3.47251e-05
3.44295e-05
3.41374e-05
3.38487e-05
3.35635e-05
3.32818e-05
3.30036e-05
3.27289e-05
3.24576e-05
3.21899e-05
3.19256e-05
3.16649e-05
3.14075e-05
3.11536e-05
3.09032e-05
3.06561e-05
3.04125e-05
3.01721e-05
2.99352e-05
2.97015e-05
2.94711e-05
2.9244e-05
2.90201e-05
2.87994e-05
2.85819e-05
2.83675e-05
2.81562e-05
2.79479e-05
2.77427e-05
2.75404e-05
2.73412e-05
2.71448e-05
2.69513e-05
2.67607e-05
2.65728e-05
2.63878e-05
2.62055e-05
2.60258e-05
2.58489e-05
2.56745e-05
2.55028e-05
2.53336e-05
2.51669e-05
2.50027e-05
2.48409e-05
2.46816e-05
2.45246e-05
2.43699e-05
2.42176e-05
2.40675e-05
2.39197e-05
2.3774e-05
2.36305e-05
2.34892e-05
2.33499e-05
2.32127e-05
2.30776e-05
2.29444e-05
2.28132e-05
2.2684e-05
2.25567e-05
2.24312e-05
2.23076e-05
2.21859e-05
2.20659e-05
2.19477e-05
2.18312e-05
2.17165e-05
2.16034e-05
2.1492e-05
2.13822e-05
2.12741e-05
2.11675e-05
2.10624e-05
2.09589e-05
2.08569e-05
2.07564e-05
2.06573e-05
2.05597e-05
2.04635e-05
2.03686e-05
2.02752e-05
2.01831e-05
2.00923e-05
2.00028e-05
1.99146e-05
1.98276e-05
1.97418e-05
1.96573e-05
1.9574e-05
1.94919e-05
1.94109e-05
1.9331e-05
1.92522e-05
1.91746e-05
1.9098e-05
1.90225e-05
1.8948e-05
1.88745e-05
1.88021e-05
1.87306e-05
1.866e-05
1.85905e-05
1.85218e-05
1.84541e-05
1.83872e-05
1.83213e-05
1.82562e-05
1.81919e-05
1.81285e-05
1.80659e-05
1.80041e-05
1.7943e-05
1.78827e-05
1.78232e-05
1.77644e-05
1.77064e-05
1.7649e-05
1.75924e-05
1.75364e-05
1.74811e-05
1.74264e-05
1.73724e-05
1.7319e-05
1.72662e-05
1.72141e-05
1.71625e-05
1.71115e-05
1.70611e-05
1.70112e-05
1.69619e-05
1.69132e-05
1.6865e-05
1.68173e-05
1.67702e-05
1.67236e-05
1.66775e-05
1.66321e-05
1.65871e-05
1.65427e-05
1.64989e-05
1.64557e-05
1.6413e-05
1.6371e-05
1.63296e-05
1.62889e-05
1.62489e-05
1.62097e-05
1.61711e-05
1.61335e-05
1.60967e-05
1.60609e-05
1.6026e-05
1.59921e-05
1.59594e-05
1.59278e-05
1.58973e-05
1.58681e-05
1.58402e-05
1.58134e-05
1.57879e-05
1.57635e-05
1.57404e-05
1.57183e-05
1.56971e-05
1.56763e-05
1.5656e-05
1.56357e-05
1.56153e-05
1.55947e-05
1.55735e-05
1.55513e-05
1.55279e-05
1.55026e-05
1.54752e-05
1.54451e-05
1.54117e-05
1.53746e-05
1.53333e-05
1.52861e-05
1.5233e-05
1.51727e-05
1.51042e-05
1.50264e-05
1.49384e-05
1.48398e-05
1.47305e-05
1.46112e-05
1.44833e-05
1.43481e-05
1.42065e-05
1.40603e-05
1.39154e-05
1.37791e-05
1.36528e-05
1.35407e-05
1.34389e-05
1.33423e-05
1.32433e-05
1.31334e-05
1.29921e-05
1.279e-05
1.24942e-05
1.21171e-05
1.18164e-05
1.16739e-05
1.16279e-05
1.16408e-05
1.1692e-05
1.1791e-05
1.19064e-05
1.20604e-05
1.22168e-05
1.24823e-05
0.000200337
0.00040134
0.000579047
0.000698097
0.000757339
0.000784053
0.000790347
0.000781479
0.000761576
0.000737313
0.000710519
0.00068292
0.000656842
0.000632523
0.000609959
0.000589039
0.000569512
0.000551241
0.000534043
0.00051798
0.000502918
0.000488688
0.0004752
0.000462394
0.000450185
0.000438553
0.000427469
0.000416898
0.000406813
0.000397163
0.000387947
0.000379098
0.00037063
0.000362497
0.000354683
0.000347164
0.000339936
0.000332972
0.000326271
0.000319803
0.000313573
0.000307548
0.000301735
0.000296104
0.000290664
0.000285386
0.000280285
0.00027533
0.000270545
0.000265894
0.000261413
0.000257051
0.000252869
0.000248779
0.000244783
0.000240883
0.000237108
0.000233455
0.00022993
0.000226535
0.000223272
0.000220149
0.000217165
0.00021433
0.000211641
0.000209113
0.000206738
0.000204537
0.000202496
0.000200642
0.000198961
0.000197475
0.000196189
0.00019511
0.000194247
0.000193642
0.000193248
0.000193167
0.000193335
0.000193808
0.000194641
0.000195759
0.00019726
0.00019919
0.000201404
0.000203994
0.000206992
0.000210429
0.000214297
0.000218622
0.000223373
0.00022857
0.000234149
0.000240099
0.000246402
0.00025299
0.000259842
0.000266786
0.000273919
0.000281131
0.000288346
0.000295506
0.000302553
0.000309448
0.000316145
0.000322601
0.000328795
0.000334715
0.000340346
0.000345681
0.000350702
0.000355425
0.000359858
0.000363984
0.000367828
0.000371368
0.00037463
0.00037762
0.000380325
0.000382774
0.000384905
0.000386907
0.000388537
0.000390072
0.000391044
0.000391972
0.000392793
0.000393432
0.000393863
0.000394086
0.000394108
0.000393944
0.000393602
0.000393094
0.000392429
0.000391615
0.000390658
0.000389569
0.00038835
0.000387009
0.000385551
0.000383983
0.00038231
0.000380539
0.000378676
0.000376724
0.00037469
0.000372579
0.000370397
0.000368147
0.000365839
0.00036347
0.000361049
0.000358575
0.000356052
0.000353484
0.000350872
0.000348227
0.000345554
0.000342854
0.000340131
0.000337386
0.000334623
0.000331844
0.000329051
0.000326248
0.000323436
0.000320618
0.000317796
0.000314972
0.000312148
0.000309326
0.000306507
0.000303693
0.000300885
0.000298086
0.000295295
0.000292516
0.000289748
0.000286993
0.000284252
0.000281527
0.000278817
0.000276124
0.000273449
0.000270792
0.000268153
0.000265535
0.000262937
0.000260359
0.000257803
0.000255268
0.000252755
0.000250265
0.000247797
0.000245352
0.00024293
0.000240531
0.000238156
0.000235804
0.000233477
0.000231173
0.000228892
0.000226636
0.000224404
0.000222195
0.00022001
0.00021785
0.000215712
0.000213598
0.000211508
0.000209442
0.000207398
0.000205378
0.000203381
0.000201406
0.000199454
0.000197525
0.000195618
0.000193734
0.000191871
0.000190029
0.00018821
0.000186412
0.000184635
0.000182879
0.000181143
0.000179428
0.000177733
0.000176059
0.000174404
0.000172769
0.000171153
0.000169557
0.000167979
0.00016642
0.00016488
0.000163358
0.000161853
0.000160367
0.000158898
0.000157447
0.000156013
0.000154596
0.000153196
0.000151812
0.000150445
0.000149094
0.000147758
0.000146439
0.000145135
0.000143846
0.000142573
0.000141315
0.000140072
0.000138842
0.000137628
0.000136427
0.000135241
0.000134069
0.000132911
0.000131766
0.000130634
0.000129515
0.000128411
0.000127318
0.000126238
0.000125171
0.000124116
0.000123073
0.000122042
0.000121024
0.000120017
0.00011902
0.000118037
0.000117064
0.000116102
0.000115151
0.000114211
0.000113281
0.000112362
0.000111453
0.000110553
0.000109665
0.000108786
0.000107917
0.000107057
0.000106206
0.000105365
0.000104533
0.000103709
0.000102894
0.000102089
0.000101291
0.000100502
9.97213e-05
9.89487e-05
9.81833e-05
9.74266e-05
9.66763e-05
9.59343e-05
9.51994e-05
9.4473e-05
9.37525e-05
9.30398e-05
9.23335e-05
9.16341e-05
9.09409e-05
9.02552e-05
8.95748e-05
8.89023e-05
8.82352e-05
8.75744e-05
8.69201e-05
8.62718e-05
8.56297e-05
8.49943e-05
8.43637e-05
8.37399e-05
8.31218e-05
8.2511e-05
8.19057e-05
8.13067e-05
8.07151e-05
8.01296e-05
7.95525e-05
7.89812e-05
7.84196e-05
7.78639e-05
7.73191e-05
7.67817e-05
7.62537e-05
7.57389e-05
7.52316e-05
7.47376e-05
7.42566e-05
7.3789e-05
7.33358e-05
7.2897e-05
7.24745e-05
7.20686e-05
7.16805e-05
7.13105e-05
7.09591e-05
7.06259e-05
7.03112e-05
7.00138e-05
6.97329e-05
6.94663e-05
6.92145e-05
6.89709e-05
6.87298e-05
6.84855e-05
6.82369e-05
6.79813e-05
6.77134e-05
6.74275e-05
6.71174e-05
6.67771e-05
6.64007e-05
6.59809e-05
6.55115e-05
6.49851e-05
6.43943e-05
6.3738e-05
6.29892e-05
6.21545e-05
6.12244e-05
6.01929e-05
5.90604e-05
5.78361e-05
5.65391e-05
5.51946e-05
5.38334e-05
5.2526e-05
5.12891e-05
5.01162e-05
4.89834e-05
4.78879e-05
4.69875e-05
4.63401e-05
4.60567e-05
4.61797e-05
4.6686e-05
4.74418e-05
4.84421e-05
4.95663e-05
5.01805e-05
4.88709e-05
4.36966e-05
3.41465e-05
2.67805e-05
2.27999e-05
2.05472e-05
1.95483e-05
1.91795e-05
1.92024e-05
2.00665e-05
2.2279e-05
2.74707e-05
0.00033742
0.000632827
0.000848445
0.000985288
0.00105552
0.00108278
0.0010847
0.00107097
0.00104765
0.0010215
0.000991888
0.00096209
0.00093421
0.000908508
0.00088485
0.000863049
0.000842866
0.000823864
0.000805864
0.000788658
0.000772166
0.000756362
0.000741205
0.000726642
0.000712626
0.00069914
0.00068615
0.000673625
0.000661543
0.000649849
0.000638559
0.000627593
0.000616983
0.000606693
0.000596689
0.000586962
0.000577507
0.000568309
0.000559363
0.000550655
0.000542177
0.000533915
0.00052586
0.000518002
0.000510331
0.000502844
0.000495531
0.000488396
0.000481431
0.000474646
0.000468039
0.000461615
0.000455381
0.000449345
0.000443487
0.000437808
0.000432309
0.000427011
0.000421917
0.000417045
0.000412405
0.000408014
0.000403886
0.000400045
0.000396504
0.000393296
0.000390419
0.000387933
0.000385817
0.000384149
0.000382884
0.000382143
0.000381877
0.000382136
0.000383045
0.000384516
0.000386641
0.000389609
0.000393096
0.000397648
0.00040294
0.000408917
0.000415754
0.000423531
0.000432266
0.000441946
0.000452623
0.000464246
0.000476804
0.000490292
0.000504705
0.000519855
0.000535708
0.000552316
0.000569489
0.000587085
0.000604984
0.000623038
0.000641141
0.000659179
0.000677015
0.000694553
0.000711621
0.000728127
0.000743983
0.000759126
0.000773497
0.000787061
0.000799777
0.000811643
0.000822654
0.000832813
0.000842147
0.00085065
0.000858373
0.000865307
0.000871492
0.000876948
0.000881727
0.000885841
0.000889267
0.000892169
0.000894379
0.000896351
0.000897177
0.000897856
0.000898208
0.000898128
0.000897603
0.000896651
0.000895296
0.000893566
0.000891484
0.000889073
0.000886356
0.000883351
0.000880075
0.000876546
0.000872778
0.000868786
0.000864583
0.000860184
0.000855599
0.000850843
0.000845926
0.000840859
0.000835655
0.000830322
0.000824872
0.000819313
0.000813657
0.000807918
0.000802097
0.000796192
0.000790214
0.000784165
0.000778057
0.000771909
0.000765726
0.000759513
0.000753273
0.000747013
0.000740737
0.00073445
0.000728155
0.000721858
0.000715563
0.000709274
0.000702994
0.000696727
0.000690477
0.000684247
0.000678038
0.000671855
0.000665699
0.000659574
0.000653481
0.000647422
0.0006414
0.000635417
0.000629473
0.000623571
0.000617712
0.000611897
0.000606128
0.000600406
0.000594731
0.000589104
0.000583528
0.000578001
0.000572524
0.000567099
0.000561726
0.000556404
0.000551135
0.000545918
0.000540754
0.000535643
0.000530585
0.000525579
0.000520627
0.000515728
0.000510881
0.000506087
0.000501345
0.000496655
0.000492019
0.000487433
0.000482898
0.000478415
0.000473981
0.000469599
0.000465266
0.000460982
0.000456748
0.000452561
0.000448423
0.000444332
0.000440289
0.000436292
0.000432341
0.000428435
0.000424575
0.000420759
0.000416987
0.000413258
0.000409573
0.000405929
0.000402327
0.000398768
0.000395249
0.00039177
0.000388331
0.000384931
0.00038157
0.000378247
0.000374962
0.000371714
0.000368503
0.000365328
0.000362189
0.000359084
0.000356016
0.000352981
0.00034998
0.000347012
0.000344077
0.000341176
0.000338305
0.000335467
0.00033266
0.000329883
0.000327138
0.000324422
0.000321736
0.000319078
0.000316451
0.00031385
0.000311279
0.000308735
0.000306218
0.000303728
0.000301265
0.000298827
0.000296418
0.000294031
0.000291671
0.000289336
0.000287026
0.000284738
0.000282475
0.000280236
0.00027802
0.000275825
0.000273655
0.000271507
0.000269379
0.000267275
0.000265191
0.000263128
0.000261085
0.000259062
0.000257059
0.000255077
0.000253114
0.00025117
0.000249244
0.000247336
0.000245447
0.000243575
0.000241721
0.000239883
0.000238064
0.00023626
0.000234473
0.000232701
0.000230947
0.000229205
0.000227482
0.000225769
0.000224074
0.000222392
0.000220726
0.000219072
0.000217433
0.000215806
0.000214192
0.000212591
0.000211003
0.000209427
0.000207864
0.000206312
0.000204773
0.000203246
0.00020173
0.000200227
0.000198735
0.000197255
0.000195787
0.00019433
0.000192888
0.000191456
0.000190039
0.000188634
0.000187244
0.00018587
0.00018451
0.00018317
0.000181841
0.000180539
0.00017925
0.000177987
0.000176749
0.000175529
0.000174345
0.000173188
0.000172063
0.000170972
0.000169917
0.000168901
0.000167927
0.000166996
0.000166109
0.000165269
0.000164476
0.000163728
0.000163024
0.000162361
0.000161736
0.000161146
0.000160579
0.000160018
0.000159454
0.00015888
0.000158288
0.000157665
0.000156995
0.000156264
0.000155456
0.000154554
0.00015354
0.000152395
0.000151099
0.00014963
0.000147975
0.00014607
0.000143915
0.000141474
0.000138721
0.00013563
0.000132198
0.000128455
0.000124448
0.000120262
0.00011601
0.000111812
0.000107686
0.000103584
9.96688e-05
9.63192e-05
9.38256e-05
9.24258e-05
9.2155e-05
9.28438e-05
9.43339e-05
9.66098e-05
9.92315e-05
0.000100683
9.80157e-05
8.7054e-05
6.48168e-05
4.60667e-05
3.58693e-05
3.05072e-05
2.8374e-05
2.76488e-05
2.78691e-05
3.03862e-05
3.6085e-05
4.92914e-05
0.000386996
0.000733621
0.000953165
0.00107346
0.0011347
0.00115887
0.00115723
0.00114341
0.00112503
0.00110407
0.00107735
0.00105234
0.00102981
0.00100981
0.000991934
0.000975844
0.000960959
0.000947099
0.000934194
0.000921732
0.000909549
0.000897574
0.00088579
0.000874172
0.000862797
0.000851638
0.000840674
0.000829902
0.000819329
0.000808924
0.000798731
0.000788688
0.000778837
0.000769144
0.000759596
0.000750221
0.000741027
0.000732016
0.000723188
0.000714546
0.000706085
0.000697808
0.000689706
0.000681781
0.000674029
0.000666456
0.000659049
0.000651831
0.00064479
0.000637959
0.000631329
0.000624937
0.000618775
0.000612883
0.000607263
0.00060193
0.000596873
0.000592149
0.000587743
0.00058371
0.000580056
0.000576815
0.000574026
0.000571725
0.000569955
0.000568748
0.000568141
0.000568221
0.000568974
0.000570495
0.000572758
0.000575998
0.00057992
0.000584924
0.00059099
0.0005978
0.00060607
0.000615344
0.00062553
0.000636891
0.000649527
0.000663419
0.000678503
0.000694911
0.000712462
0.000731195
0.000751232
0.000772177
0.000794232
0.000817398
0.000841465
0.000866277
0.000891708
0.000917673
0.000944053
0.000970708
0.000997487
0.00102423
0.00105078
0.00107702
0.00110279
0.00112794
0.00115235
0.00117591
0.0011985
0.00122006
0.00124048
0.00125974
0.00127779
0.0012946
0.00131014
0.00132443
0.00133749
0.00134931
0.00135995
0.00136941
0.00137772
0.00138491
0.00139112
0.00139626
0.00140043
0.0014037
0.00140607
0.0014076
0.00140823
0.00140832
0.00140774
0.00140649
0.00140459
0.00140208
0.00139899
0.00139535
0.00139121
0.00138658
0.00138152
0.00137603
0.00137017
0.00136394
0.00135738
0.0013505
0.00134333
0.0013359
0.00132821
0.00132029
0.00131215
0.00130382
0.00129531
0.00128663
0.0012778
0.00126884
0.00125975
0.00125057
0.00124128
0.0012319
0.00122243
0.00121287
0.00120326
0.00119361
0.00118393
0.00117422
0.00116449
0.00115476
0.00114501
0.00113527
0.00112554
0.00111582
0.00110612
0.00109645
0.0010868
0.00107719
0.00106762
0.00105809
0.00104861
0.00103919
0.00102981
0.00102049
0.00101123
0.00100204
0.000992906
0.000983843
0.000974849
0.000965927
0.000957077
0.000948303
0.000939605
0.000930984
0.000922441
0.000913978
0.000905596
0.000897294
0.000889074
0.000880935
0.00087288
0.000864907
0.000857017
0.00084921
0.000841486
0.000833844
0.000826286
0.00081881
0.000811417
0.000804106
0.000796877
0.000789729
0.000782661
0.000775674
0.000768768
0.00076194
0.00075519
0.000748518
0.000741923
0.000735405
0.000728963
0.000722595
0.000716301
0.000710081
0.000703933
0.000697856
0.000691851
0.000685915
0.000680049
0.00067425
0.000668519
0.000662855
0.000657257
0.000651723
0.000646254
0.000640846
0.000635501
0.000630219
0.000624997
0.000619835
0.00061473
0.000609685
0.000604695
0.000599763
0.000594887
0.000590065
0.000585297
0.000580583
0.00057592
0.000571309
0.00056675
0.000562241
0.000557781
0.00055337
0.000549007
0.000544692
0.000540423
0.000536201
0.000532024
0.000527891
0.000523803
0.00051976
0.000515758
0.000511798
0.000507882
0.000504005
0.000500169
0.000496374
0.000492618
0.000488901
0.000485223
0.000481581
0.000477979
0.00047441
0.000470881
0.000467387
0.000463928
0.000460504
0.000457113
0.000453757
0.000450434
0.000447143
0.000443886
0.00044066
0.000437464
0.000434301
0.000431168
0.000428064
0.00042499
0.000421944
0.000418926
0.000415938
0.000412977
0.000410042
0.000407135
0.000404253
0.000401396
0.000398565
0.00039576
0.000392977
0.00039022
0.000387484
0.000384774
0.000382083
0.000379419
0.000376769
0.00037415
0.00037154
0.00036896
0.000366396
0.000363853
0.000361329
0.000358824
0.000356336
0.000353867
0.000351415
0.000348982
0.000346565
0.000344166
0.000341783
0.000339417
0.000337068
0.000334735
0.000332418
0.000330119
0.000327835
0.000325569
0.000323319
0.000321089
0.000318876
0.000316682
0.000314508
0.000312355
0.000310227
0.000308119
0.000306043
0.000303984
0.000301968
0.000299968
0.00029802
0.000296095
0.000294218
0.000292391
0.000290607
0.000288877
0.000287203
0.00028559
0.000284041
0.000282563
0.000281157
0.000279827
0.000278574
0.0002774
0.000276303
0.00027528
0.000274324
0.000273431
0.000272595
0.000271796
0.000271007
0.000270215
0.000269408
0.000268569
0.000267674
0.000266701
0.000265623
0.000264416
0.000263049
0.000261494
0.000259716
0.000257681
0.000255349
0.00025269
0.000249608
0.000246082
0.000242044
0.000237442
0.000232216
0.000226342
0.000219848
0.000212786
0.000205275
0.000197469
0.000189542
0.000181572
0.000173487
0.000165586
0.000158644
0.000153288
0.00014988
0.000148477
0.000148821
0.000150756
0.000154302
0.000158534
0.000160887
0.000156617
0.000138595
0.000100629
6.75614e-05
4.95752e-05
4.08241e-05
3.76866e-05
3.6274e-05
3.69684e-05
4.1716e-05
5.17298e-05
7.44544e-05
0.000418838
0.000734248
0.000945253
0.00103301
0.00109785
0.00112401
0.00112009
0.00110543
0.00108478
0.00106412
0.00104663
0.00103314
0.00102277
0.00101486
0.00100854
0.00100323
0.000998054
0.000992669
0.000986854
0.000980763
0.000974402
0.000967728
0.000960746
0.000953466
0.000945968
0.000938306
0.00093051
0.000922615
0.000914666
0.000906658
0.000898659
0.000890631
0.000882602
0.000874663
0.000866745
0.000858868
0.000851048
0.000843305
0.000835656
0.000828124
0.000820721
0.000813465
0.00080636
0.000799429
0.000792664
0.000786091
0.00077971
0.000773565
0.000767647
0.000762014
0.000756649
0.000751629
0.00074693
0.000742642
0.000738743
0.0007353
0.000732299
0.000729842
0.000727875
0.000726531
0.000725753
0.000725643
0.000726246
0.000727608
0.000729781
0.000732777
0.000736727
0.000741681
0.000747575
0.000754533
0.000762674
0.000772031
0.000782156
0.000794236
0.000807122
0.000821079
0.000836395
0.000853094
0.00087114
0.000890458
0.000911207
0.000933168
0.000956387
0.000981087
0.00100655
0.00103348
0.00106157
0.00109061
0.00112051
0.00115124
0.00118269
0.00121476
0.0012473
0.0012802
0.00131333
0.00134657
0.00137977
0.00141281
0.00144549
0.00147768
0.00150923
0.00154004
0.00156994
0.00159885
0.00162664
0.00165324
0.00167854
0.00170246
0.00172495
0.00174596
0.00176546
0.00178343
0.00179988
0.00181482
0.00182829
0.00184023
0.00185072
0.00185978
0.00186761
0.00187399
0.00187916
0.00188313
0.0018857
0.00188743
0.00188822
0.001888
0.00188682
0.00188474
0.00188181
0.00187808
0.00187359
0.00186838
0.0018625
0.00185599
0.00184889
0.00184125
0.0018331
0.00182447
0.00181541
0.00180594
0.00179609
0.00178589
0.00177537
0.00176456
0.00175347
0.00174213
0.00173057
0.00171881
0.00170685
0.00169474
0.00168248
0.00167009
0.00165759
0.00164497
0.00163224
0.00161944
0.00160658
0.00159367
0.00158074
0.00156778
0.00155481
0.00154185
0.00152888
0.00151594
0.00150301
0.00149012
0.00147726
0.00146445
0.00145169
0.00143899
0.00142634
0.00141377
0.00140126
0.00138883
0.00137649
0.00136422
0.00135204
0.00133996
0.00132796
0.00131607
0.00130427
0.00129257
0.00128097
0.00126948
0.00125809
0.00124681
0.00123564
0.00122458
0.00121363
0.00120279
0.00119206
0.00118145
0.00117094
0.00116055
0.00115027
0.0011401
0.00113005
0.0011201
0.00111027
0.00110055
0.00109093
0.00108143
0.00107204
0.00106276
0.00105358
0.00104451
0.00103555
0.00102669
0.00101794
0.00100929
0.00100074
0.00099229
0.000983942
0.000975693
0.000967541
0.000959486
0.000951527
0.000943662
0.00093589
0.00092821
0.00092062
0.000913119
0.000905707
0.000898382
0.000891143
0.000883989
0.000876918
0.000869929
0.00086302
0.000856194
0.000849445
0.000842774
0.000836178
0.00082966
0.000823214
0.000816842
0.000810542
0.000804313
0.000798153
0.000792063
0.00078604
0.000780083
0.000774194
0.000768368
0.000762606
0.000756907
0.00075127
0.000745695
0.000740179
0.000734723
0.000729325
0.000723984
0.0007187
0.000713473
0.0007083
0.000703181
0.000698117
0.000693104
0.000688144
0.000683235
0.000678377
0.000673567
0.000668808
0.000664095
0.000659433
0.000654814
0.000650246
0.000645722
0.000641242
0.000636807
0.000632415
0.000628067
0.000623761
0.000619495
0.000615273
0.00061109
0.000606946
0.000602843
0.000598778
0.000594751
0.000590761
0.000586807
0.000582889
0.000579007
0.00057516
0.000571348
0.000567568
0.000563822
0.000560107
0.000556424
0.000552774
0.000549153
0.000545564
0.000542001
0.00053847
0.000534963
0.000531491
0.000528036
0.00052462
0.000521213
0.000517847
0.000514499
0.000511178
0.000507879
0.000504604
0.000501352
0.000498122
0.000494913
0.000491727
0.000488562
0.000485419
0.000482296
0.000479193
0.000476112
0.000473051
0.000470011
0.000466992
0.000463993
0.000461017
0.000458062
0.000455132
0.000452224
0.000449342
0.000446486
0.000443658
0.000440864
0.000438097
0.000435374
0.000432674
0.000430037
0.000427416
0.000424881
0.000422356
0.000419932
0.000417554
0.000415246
0.000413015
0.000410865
0.000408805
0.000406839
0.000404974
0.000403215
0.000401566
0.000400029
0.000398607
0.000397295
0.000396089
0.00039498
0.000393961
0.000393019
0.000392125
0.000391244
0.00039036
0.000389455
0.0003885
0.000387463
0.000386309
0.000385004
0.000383509
0.000381787
0.000379792
0.000377479
0.000374798
0.000371694
0.000368108
0.00036393
0.000359101
0.000353529
0.000347141
0.000339851
0.000331612
0.000322445
0.000312398
0.000301606
0.00029024
0.000278508
0.000266504
0.000254148
0.000241872
0.000230881
0.000222132
0.000216106
0.000212966
0.000212396
0.000214302
0.00021865
0.000223899
0.00022627
0.000219048
0.000191357
0.000135943
8.81767e-05
6.26485e-05
5.12391e-05
4.7079e-05
4.50685e-05
4.65787e-05
5.38099e-05
6.83129e-05
0.000100731
0.000383625
0.000655181
0.000833368
0.000927409
0.000965955
0.00096541
0.0009584
0.000947653
0.000937275
0.000930839
0.000930484
0.000935183
0.000942944
0.000952434
0.000962238
0.000971492
0.000978916
0.000984848
0.000989232
0.000992331
0.000994133
0.000994624
0.000993914
0.000992141
0.000989506
0.000986133
0.000982146
0.000977664
0.000972806
0.000967615
0.000962196
0.000956549
0.000950715
0.00094479
0.000938711
0.000932565
0.000926394
0.000920237
0.000914131
0.000908118
0.000902227
0.000896496
0.000890945
0.000885617
0.000880511
0.000875699
0.000871165
0.000866973
0.000863107
0.000859655
0.000856597
0.000854053
0.000851972
0.000850513
0.000849597
0.000849371
0.000849815
0.000851058
0.000852995
0.000855856
0.000859437
0.000864027
0.000869585
0.000876124
0.000883672
0.000892277
0.000902195
0.00091323
0.00092532
0.000938819
0.000953846
0.000969716
0.000986775
0.00100531
0.00102519
0.00104635
0.00106883
0.0010927
0.00111784
0.00114425
0.00117214
0.00120079
0.00123098
0.00126238
0.00129474
0.00132806
0.00136233
0.00139745
0.00143332
0.00146983
0.00150692
0.00154446
0.00158237
0.00162049
0.00165873
0.00169699
0.00173508
0.00177289
0.00181027
0.0018471
0.00188323
0.00191854
0.00195289
0.00198617
0.00201822
0.00204904
0.00207845
0.00210637
0.00213273
0.00215749
0.00218056
0.00220194
0.0022216
0.00223958
0.00225584
0.00227038
0.00228324
0.00229445
0.00230425
0.00231216
0.00231866
0.00232346
0.00232728
0.00232973
0.00233087
0.00233078
0.00232949
0.00232709
0.00232363
0.00231917
0.00231377
0.00230746
0.00230032
0.00229239
0.00228372
0.00227437
0.00226437
0.00225377
0.00224263
0.00223097
0.00221884
0.00220628
0.00219331
0.00217997
0.0021663
0.00215232
0.00213806
0.00212355
0.00210881
0.00209388
0.00207877
0.00206349
0.00204807
0.00203252
0.00201685
0.0020011
0.00198529
0.00196942
0.00195353
0.00193761
0.00192168
0.00190576
0.00188986
0.00187398
0.00185813
0.00184233
0.00182658
0.0018109
0.00179528
0.00177974
0.00176428
0.00174891
0.00173363
0.00171845
0.00170338
0.00168841
0.00167356
0.00165882
0.0016442
0.00162971
0.00161534
0.0016011
0.00158698
0.001573
0.00155916
0.00154545
0.00153187
0.00151844
0.00150514
0.00149198
0.00147896
0.00146608
0.00145334
0.00144073
0.00142827
0.00141595
0.00140377
0.00139173
0.00137982
0.00136805
0.00135642
0.00134493
0.00133357
0.00132234
0.00131125
0.00130029
0.00128946
0.00127876
0.00126819
0.00125774
0.00124742
0.00123722
0.00122715
0.0012172
0.00120736
0.00119765
0.00118805
0.00117857
0.0011692
0.00115994
0.00115079
0.00114175
0.00113282
0.001124
0.00111528
0.00110666
0.00109815
0.00108973
0.00108142
0.0010732
0.00106508
0.00105705
0.00104911
0.00104127
0.00103351
0.00102584
0.00101826
0.00101077
0.00100336
0.000996034
0.000988789
0.000981625
0.000974541
0.000967534
0.000960605
0.00095375
0.000946972
0.000940266
0.000933633
0.000927071
0.00092058
0.000914157
0.000907803
0.000901516
0.000895295
0.000889139
0.000883048
0.000877019
0.000871053
0.000865149
0.000859305
0.000853521
0.000847796
0.000842127
0.000836519
0.000830961
0.000825466
0.000820023
0.000814633
0.000809296
0.000804011
0.000798778
0.000793596
0.000788463
0.00078338
0.000778345
0.000773357
0.000768417
0.000763523
0.000758674
0.000753868
0.000749106
0.000744388
0.000739712
0.000735077
0.000730483
0.000725929
0.000721414
0.000716938
0.000712498
0.000708097
0.000703731
0.000699402
0.000695105
0.000690846
0.000686615
0.000682425
0.000678254
0.000674132
0.000670017
0.000665953
0.00066191
0.000657897
0.000653911
0.000649952
0.00064602
0.000642115
0.000638234
0.00063438
0.000630551
0.000626747
0.000622968
0.000619212
0.000615481
0.000611774
0.000608093
0.000604436
0.000600804
0.000597199
0.000593621
0.000590073
0.000586552
0.000583064
0.000579609
0.00057619
0.000572812
0.000569471
0.000566186
0.000562933
0.000559761
0.000556611
0.000553579
0.000550546
0.000547662
0.000544839
0.000542108
0.00053948
0.000536963
0.000534566
0.000532296
0.000530164
0.000528173
0.000526332
0.000524641
0.000523104
0.000521715
0.000520465
0.000519344
0.000518339
0.000517432
0.000516581
0.000515744
0.000514904
0.000514034
0.000513093
0.000512037
0.000510821
0.0005094
0.000507726
0.000505747
0.000503408
0.00050065
0.000497407
0.000493608
0.000489169
0.000483966
0.000477903
0.000470869
0.000462783
0.000453539
0.00044307
0.000431389
0.000418533
0.000404644
0.000389895
0.000374505
0.000358572
0.00034204
0.00032543
0.000310341
0.000297989
0.000288984
0.000283602
0.000281504
0.000282691
0.000286908
0.00029188
0.000292494
0.00028
0.00023978
0.000167253
0.000106756
7.52955e-05
6.19358e-05
5.68168e-05
5.44313e-05
5.68855e-05
6.65409e-05
8.5406e-05
0.000127198
0.000367993
0.000551539
0.000674555
0.000705662
0.000719563
0.000725868
0.000733836
0.000733308
0.000740548
0.000756551
0.000779747
0.000807776
0.00083748
0.000867216
0.000894849
0.000919335
0.000941359
0.000960172
0.000975737
0.000987906
0.000997229
0.00100406
0.00100879
0.00101176
0.00101333
0.00101362
0.0010129
0.00101138
0.00100926
0.0010066
0.00100355
0.00100014
0.000996404
0.000992522
0.000988408
0.000984163
0.00097985
0.000975528
0.000971259
0.000967105
0.000963118
0.000959361
0.000955874
0.000952713
0.000949906
0.000947511
0.000945537
0.000944081
0.000943147
0.000942822
0.000943075
0.000944061
0.000945674
0.000948177
0.000951349
0.000955517
0.00096058
0.000966641
0.000973554
0.000981626
0.000990462
0.00100075
0.00101204
0.00102439
0.00103782
0.00105261
0.001069
0.00108618
0.00110457
0.00112433
0.00114548
0.00116791
0.00119154
0.00121649
0.00124264
0.00127005
0.0012987
0.00132859
0.00135944
0.00139172
0.00142519
0.00145964
0.00149513
0.00153164
0.00156908
0.00160737
0.00164646