/*--------------------------------*- C++ -*----------------------------------*\
| =========                 |                                                 |
| \\      /  F ield         | OpenFOAM: The Open Source CFD Toolbox           |
|  \\    /   O peration     | Version:  v2012                                 |
|   \\  /    A nd           | Website:  www.openfoam.com                      |
|    \\/     M anipulation  |                                                 |
\*---------------------------------------------------------------------------*/
FoamFile
{
    version     2.0;
    format      ascii;
    class       surfaceScalarField;
    location    "80";
    object      phi;
}
// * * * * * * * * * * * * * * * * * * * * * * * * * * * * * * * * * * * * * //

dimensions      [0 3 -1 0 0 0 0];
oriented        oriented;


internalField   nonuniform List<scalar> 
50031
(
-0.000187104
0.000105076
8.20282e-05
-0.000245777
5.8673e-05
-0.000263679
1.7902e-05
-0.000248531
-1.51481e-05
-0.000211783
-3.67477e-05
-0.000162951
-4.88322e-05
-0.000107636
-5.53153e-05
-5.1355e-05
-5.62807e-05
2.85529e-06
-5.42103e-05
5.34606e-05
-5.06053e-05
9.91759e-05
-4.57153e-05
0.000140012
-4.08361e-05
0.000176337
-3.6325e-05
0.00020859
-3.22528e-05
0.000237192
-2.86027e-05
0.000262539
-2.53463e-05
0.000284984
-2.24453e-05
0.00030485
-1.98655e-05
0.000322425
-1.75756e-05
0.000337974
-1.55486e-05
0.000351732
-1.37577e-05
0.00036391
-1.2178e-05
0.000374696
-1.07866e-05
0.000384259
-9.56301e-06
0.000392747
-8.4877e-06
0.00040029
-7.54303e-06
0.000407004
-6.71394e-06
0.00041299
-5.98588e-06
0.000418336
-5.3461e-06
0.000423119
-4.78325e-06
0.000427406
-4.28664e-06
0.000431253
-3.84777e-06
0.000434712
-3.45829e-06
0.000437824
-3.1118e-06
0.000440625
-2.80188e-06
0.000443149
-2.52394e-06
0.000445422
-2.27294e-06
0.000447468
-2.04587e-06
0.000449307
-1.83837e-06
0.000450956
-1.64899e-06
0.000452429
-1.47338e-06
0.000453741
-1.31187e-06
0.0004549
-1.15958e-06
0.000455919
-1.01908e-06
0.000456803
-8.83705e-07
0.000457562
-7.59335e-07
0.000458198
-6.35913e-07
0.000458723
-5.24511e-07
0.000459132
-4.0873e-07
0.00045944
-3.08464e-07
0.000459636
-1.96286e-07
0.000459746
-1.09473e-07
0.000459752
-6.60063e-09
0.000459677
7.57208e-08
0.000459506
1.70818e-07
0.000459237
2.68467e-07
0.000458885
3.52106e-07
0.000458449
4.36427e-07
0.000457931
5.17529e-07
0.000457335
5.96806e-07
0.000456661
6.73487e-07
0.000455913
7.47768e-07
0.000455094
8.19593e-07
0.000454205
8.88464e-07
0.00045325
9.54916e-07
0.000452233
1.01761e-06
0.000451155
1.07771e-06
0.000450021
1.13443e-06
0.000448832
1.18828e-06
0.000447594
1.23839e-06
0.000446309
1.28521e-06
0.00044498
1.32841e-06
0.000443613
1.3671e-06
0.000442211
1.40219e-06
0.000440777
1.43383e-06
0.000439317
1.45988e-06
0.000437834
1.48317e-06
0.000436333
1.50095e-06
0.000434819
1.51395e-06
0.000433296
1.52308e-06
0.000431769
1.5274e-06
0.000430242
1.52683e-06
0.000428719
1.52272e-06
0.000427205
1.5145e-06
0.000425701
1.50408e-06
0.00042421
1.49043e-06
0.000422735
1.4754e-06
0.000421276
1.45827e-06
0.000419836
1.44023e-06
0.000418414
1.42248e-06
0.000417008
1.40623e-06
0.000415615
1.39219e-06
0.000414233
1.3827e-06
0.000412854
1.37895e-06
0.000411473
1.38085e-06
0.000410082
1.39112e-06
0.000408673
1.4084e-06
0.000407236
1.43689e-06
0.000405763
1.4739e-06
0.000404243
1.52001e-06
0.000402667
1.57519e-06
0.000401028
1.63898e-06
0.000399318
1.71055e-06
0.000397529
1.78869e-06
0.000395657
1.87244e-06
0.000393696
1.96024e-06
0.000391646
2.05084e-06
0.000389503
2.14272e-06
0.000387268
2.2346e-06
0.000384943
2.32521e-06
0.000382527
2.41559e-06
0.000380025
2.50225e-06
0.000377439
2.58578e-06
0.000374774
2.66536e-06
0.000372033
2.74052e-06
0.000369222
2.81122e-06
0.000366346
2.87666e-06
0.000363409
2.93697e-06
0.000360417
2.99206e-06
0.000357374
3.04213e-06
0.000354288
3.0866e-06
0.000351162
3.12603e-06
0.000348002
3.16009e-06
0.000344812
3.18992e-06
0.000341597
3.2148e-06
0.000338362
3.23448e-06
0.000335113
3.24935e-06
0.000331853
3.26005e-06
0.000328586
3.26678e-06
0.000325316
3.26985e-06
0.000322047
3.26958e-06
0.000318782
3.26472e-06
0.000315524
3.2584e-06
0.000312275
3.24845e-06
0.00030904
3.23523e-06
0.000305821
3.21916e-06
0.000302619
3.20228e-06
0.000299439
3.17986e-06
0.000296281
3.15736e-06
0.000293149
3.13256e-06
0.000290043
3.10596e-06
0.000286965
3.07755e-06
0.000283918
3.04766e-06
0.000280901
3.01651e-06
0.000277918
2.98269e-06
0.000274968
2.95034e-06
0.000272053
2.91514e-06
0.000269174
2.87916e-06
0.000266331
2.84239e-06
0.000263526
2.80485e-06
0.00026076
2.76667e-06
0.000258031
2.72877e-06
0.000255342
2.68862e-06
0.000252693
2.64949e-06
0.000250083
2.60989e-06
0.000247513
2.57008e-06
0.000244983
2.53009e-06
0.000242493
2.49e-06
0.000240043
2.44988e-06
0.000237633
2.40978e-06
0.000235263
2.36976e-06
0.000232933
2.32986e-06
0.000230643
2.29015e-06
0.000228393
2.25065e-06
0.000226181
2.21141e-06
0.000224009
2.17246e-06
0.000221875
2.13383e-06
0.000219779
2.09558e-06
0.000217722
2.05771e-06
0.000215701
2.02021e-06
0.000213718
1.98311e-06
0.000211772
1.94648e-06
0.000209862
1.91032e-06
0.000207987
1.87466e-06
0.000206147
1.8395e-06
0.000204343
1.80487e-06
0.000202572
1.77077e-06
0.000200835
1.7372e-06
0.00019913
1.70418e-06
0.000197459
1.67171e-06
0.000195819
1.63979e-06
0.00019421
1.60843e-06
0.000192633
1.57763e-06
0.000191085
1.54739e-06
0.000189568
1.5177e-06
0.000188079
1.48857e-06
0.000186619
1.46e-06
0.000185187
1.43198e-06
0.000183783
1.4045e-06
0.000182405
1.37756e-06
0.000181054
1.3512e-06
0.000179728
1.32541e-06
0.000178429
1.29995e-06
0.000177153
1.27515e-06
0.000175902
1.25089e-06
0.000174675
1.22714e-06
0.000173471
1.20388e-06
0.00017229
1.18111e-06
0.000171132
1.15883e-06
0.000169994
1.13703e-06
0.000168879
1.1157e-06
0.000167784
1.09483e-06
0.00016671
1.07442e-06
0.000165655
1.05445e-06
0.00016462
1.03492e-06
0.000163604
1.01581e-06
0.000162607
9.9712e-07
0.000161628
9.78842e-07
0.000160667
9.60967e-07
0.000159724
9.43485e-07
0.000158798
9.2639e-07
0.000157888
9.0967e-07
0.000156995
8.93326e-07
0.000156117
8.77328e-07
0.000155256
8.61692e-07
0.000154409
8.46416e-07
0.000153578
8.31482e-07
0.000152761
8.1688e-07
0.000151958
8.02603e-07
0.000151169
7.88644e-07
0.000150395
7.74995e-07
0.000149633
7.61646e-07
0.000148884
7.48592e-07
0.000148148
7.35825e-07
0.000147425
7.23339e-07
0.000146714
7.1113e-07
0.000146015
6.9919e-07
0.000145327
6.87514e-07
0.000144651
6.76086e-07
0.000143986
6.64909e-07
0.000143332
6.53973e-07
0.000142689
6.43279e-07
0.000142056
6.32815e-07
0.000141434
6.22577e-07
0.000140821
6.12564e-07
0.000140218
6.02762e-07
0.000139625
5.93172e-07
0.000139041
5.83789e-07
0.000138467
5.74606e-07
0.000137901
5.65618e-07
0.000137344
5.56822e-07
0.000136796
5.48212e-07
0.000136256
5.39781e-07
0.000135725
5.31529e-07
0.000135201
5.23453e-07
0.000134686
5.15545e-07
0.000134178
5.078e-07
0.000133678
5.00217e-07
0.000133185
4.92792e-07
0.000132699
4.85519e-07
0.000132221
4.78398e-07
0.00013175
4.71423e-07
0.000131285
4.6459e-07
0.000130827
4.57893e-07
0.000130376
4.5134e-07
0.000129931
4.44918e-07
0.000129492
4.38624e-07
0.00012906
4.32459e-07
0.000128633
4.26416e-07
0.000128213
4.20493e-07
0.000127798
4.1469e-07
0.000127389
4.09004e-07
0.000126986
4.03432e-07
0.000126588
3.97968e-07
0.000126195
3.92611e-07
0.000125808
3.87361e-07
0.000125426
3.82213e-07
0.000125048
3.77165e-07
0.000124676
3.72218e-07
0.000124309
3.67371e-07
0.000123946
3.62617e-07
0.000123588
3.57952e-07
0.000123235
3.53381e-07
0.000122886
3.48903e-07
0.000122541
3.44503e-07
0.000122201
3.4019e-07
0.000121865
3.35963e-07
0.000121534
3.31816e-07
0.000121206
3.27749e-07
0.000120882
3.23764e-07
0.000120562
3.19855e-07
0.000120246
3.16024e-07
0.000119934
3.12263e-07
0.000119625
3.08569e-07
0.00011932
3.0495e-07
0.000119019
3.01403e-07
0.000118721
2.97929e-07
0.000118427
2.94519e-07
0.000118135
2.91175e-07
0.000117847
2.87894e-07
0.000117563
2.84681e-07
0.000117281
2.81528e-07
0.000117003
2.78433e-07
0.000116727
2.75404e-07
0.000116455
2.72434e-07
0.000116185
2.6952e-07
0.000115919
2.66667e-07
0.000115655
2.63871e-07
0.000115394
2.61135e-07
0.000115135
2.58444e-07
0.000114879
2.55822e-07
0.000114626
2.5324e-07
0.000114376
2.50708e-07
0.000114127
2.48231e-07
0.000113882
2.45807e-07
0.000113638
2.43433e-07
0.000113397
2.41113e-07
0.000113158
2.38839e-07
0.000112922
2.36609e-07
0.000112687
2.3443e-07
0.000112455
2.32286e-07
0.000112225
2.30191e-07
0.000111996
2.28142e-07
0.00011177
2.26128e-07
0.000111546
2.24157e-07
0.000111324
2.22218e-07
0.000111104
2.20315e-07
0.000110885
2.18455e-07
0.000110669
2.16622e-07
0.000110454
2.14819e-07
0.000110241
2.13028e-07
0.000110029
2.11268e-07
0.00010982
2.09525e-07
0.000109612
2.07789e-07
0.000109406
2.06066e-07
0.000109202
2.04326e-07
0.000108999
2.02607e-07
0.000108798
2.00843e-07
0.000108599
1.99099e-07
0.000108402
1.97293e-07
0.000108206
1.95462e-07
0.000108013
1.93624e-07
0.000107821
1.91618e-07
0.000107632
1.89673e-07
0.000107444
1.87589e-07
0.000107259
1.85409e-07
0.000107075
1.83115e-07
0.000106895
1.80738e-07
0.000106716
1.78221e-07
0.000106541
1.75604e-07
0.000106368
1.72818e-07
0.000106198
1.69928e-07
0.000106031
1.66855e-07
0.000105868
1.63704e-07
0.000105707
1.60386e-07
0.00010555
1.57036e-07
0.000105397
1.53546e-07
0.000105246
1.50108e-07
0.0001051
1.46604e-07
0.000104957
1.43261e-07
0.000104817
1.39958e-07
0.00010468
1.37068e-07
0.000104545
1.34418e-07
0.000104413
1.32353e-07
0.000104282
1.30492e-07
0.000104153
1.29361e-07
0.000104024
1.28545e-07
0.000103896
1.28732e-07
0.000103766
1.29323e-07
0.000103635
1.31192e-07
0.000103502
1.33514e-07
0.000103364
1.37452e-07
0.000103222
1.4182e-07
0.000103074
1.48262e-07
0.000102919
1.5503e-07
0.000102755
1.64575e-07
0.00010258
1.74402e-07
0.000102393
1.8749e-07
0.000102192
2.00498e-07
0.000101975
2.17319e-07
0.000101742
2.33001e-07
0.000101489
2.52518e-07
0.00010122
2.68858e-07
0.000100932
2.88503e-07
0.00010063
3.01889e-07
0.000100312
3.18153e-07
9.99848e-05
3.27059e-07
9.96454e-05
3.39399e-07
9.93021e-05
3.43349e-07
9.89536e-05
3.48479e-07
9.86138e-05
3.39752e-07
9.82866e-05
3.27217e-07
9.79893e-05
2.97314e-07
9.77243e-05
2.65059e-07
9.75003e-05
2.23982e-07
9.73072e-05
1.93095e-07
9.71398e-05
1.67413e-07
9.69574e-05
1.82379e-07
9.66976e-05
2.59811e-07
9.62815e-05
4.16068e-07
9.56437e-05
6.37789e-07
9.47785e-05
8.65215e-07
9.37875e-05
9.90992e-07
9.27608e-05
1.02667e-06
9.17703e-05
9.90537e-07
9.08478e-05
9.22467e-07
9.00189e-05
8.28926e-07
8.93182e-05
7.00725e-07
8.87652e-05
5.53017e-07
4.40928e-07
-0.000137401
0.000182436
6.00408e-05
-0.000177489
9.87609e-05
-0.000185478
2.58908e-05
-0.000168639
-3.19871e-05
-0.000134172
-7.12145e-05
-8.90106e-05
-9.39934e-05
-3.83373e-05
-0.000105989
1.35486e-05
-0.000108167
6.39326e-05
-0.000104594
0.000110816
-9.74883e-05
0.000153658
-8.8558e-05
0.000192301
-7.94788e-05
0.00022691
-7.09338e-05
0.000257784
-6.31274e-05
0.000285268
-5.60866e-05
0.000309703
-4.97804e-05
0.000331402
-4.41445e-05
0.000350656
-3.91201e-05
0.000367733
-3.46523e-05
0.000382874
-3.06899e-05
0.0003963
-2.7184e-05
0.000408212
-2.40896e-05
0.000418789
-2.13638e-05
0.000428193
-1.89663e-05
0.000436565
-1.68599e-05
0.000444032
-1.50101e-05
0.000450705
-1.33869e-05
0.000456681
-1.19617e-05
0.000462044
-1.07097e-05
0.000466869
-9.60845e-06
0.00047122
-8.6374e-06
0.000475152
-7.77941e-06
0.000478712
-7.0187e-06
0.000481942
-6.34189e-06
0.000484878
-5.73707e-06
0.000487548
-5.19438e-06
0.00048998
-4.70493e-06
0.000492196
-4.26153e-06
0.000494214
-3.85714e-06
0.000496052
-3.48693e-06
0.000497724
-3.14488e-06
0.00049924
-2.82837e-06
0.000500613
-2.53199e-06
0.000501849
-2.25532e-06
0.000502958
-1.99237e-06
0.000503944
-1.74546e-06
0.000504815
-1.50687e-06
0.000505573
-1.28254e-06
0.000506225
-1.06125e-06
0.000506772
-8.54812e-07
0.000507222
-6.46845e-07
0.000507571
-4.57982e-07
0.000507826
-2.615e-07
0.000507981
-7.96131e-08
0.000508052
9.95552e-08
0.000508034
2.86491e-07
0.000507932
4.54758e-07
0.000507741
6.27271e-07
0.000507466
7.92103e-07
0.000507109
9.53647e-07
0.000506672
1.11085e-06
0.000506155
1.2644e-06
0.000505561
1.41375e-06
0.000504891
1.55868e-06
0.000504146
1.69942e-06
0.00050333
1.83449e-06
0.000502442
1.96546e-06
0.000501485
2.09096e-06
0.000500462
2.21197e-06
0.000499373
2.32718e-06
0.00049822
2.43776e-06
0.000497006
2.54234e-06
0.000495733
2.64065e-06
0.000494401
2.73407e-06
0.000493013
2.82174e-06
0.00049157
2.9029e-06
0.000490073
2.97991e-06
0.000488524
3.04996e-06
0.000486923
3.11501e-06
0.000485272
3.1746e-06
0.000483569
3.23036e-06
0.000481814
3.28167e-06
0.000480006
3.3306e-06
0.000478144
3.3763e-06
0.000476228
3.42051e-06
0.000474256
3.46223e-06
0.000472226
3.5056e-06
0.000470135
3.54896e-06
0.000467981
3.59442e-06
0.00046576
3.64275e-06
0.000463472
3.69513e-06
0.000461111
3.75259e-06
0.000458678
3.81636e-06
0.000456169
3.88701e-06
0.000453586
3.96403e-06
0.000450928
4.04975e-06
0.000448195
4.14078e-06
0.000445389
4.24316e-06
0.000442511
4.35219e-06
0.000439563
4.4682e-06
0.000436547
4.59035e-06
0.000433468
4.71802e-06
0.000430329
4.85016e-06
0.000427132
4.98561e-06
0.000423881
5.12325e-06
0.00042058
5.26105e-06
0.000417233
5.39815e-06
0.000413842
5.53327e-06
0.000410412
5.66496e-06
0.000406945
5.79248e-06
0.000403443
5.91741e-06
0.00039991
6.03495e-06
0.00039635
6.146e-06
0.000392765
6.24986e-06
0.00038916
6.34612e-06
0.000385536
6.43472e-06
0.000381898
6.51501e-06
0.000378248
6.58691e-06
0.000374589
6.65067e-06
0.000370925
6.70615e-06
0.000367259
6.75339e-06
0.000363592
6.79247e-06
0.000359929
6.82357e-06
0.000356272
6.84697e-06
0.000352624
6.86244e-06
0.000348987
6.87099e-06
0.000345364
6.87267e-06
0.000341756
6.86771e-06
0.000338167
6.85645e-06
0.000334597
6.83923e-06
0.00033105
6.81661e-06
0.000327527
6.78825e-06
0.00032403
6.75549e-06
0.000320561
6.71763e-06
0.000317121
6.675e-06
0.000313712
6.62795e-06
0.000310337
6.57726e-06
0.000306995
6.5217e-06
0.000303688
6.46429e-06
0.000300417
6.40343e-06
0.000297184
6.33956e-06
0.000293988
6.27292e-06
0.000290832
6.20387e-06
0.000287716
6.13274e-06
0.000284639
6.05942e-06
0.000281604
5.98518e-06
0.000278612
5.90794e-06
0.000275661
5.82952e-06
0.000272754
5.75004e-06
0.000269889
5.66957e-06
0.000267067
5.5881e-06
0.00026429
5.50623e-06
0.000261555
5.42324e-06
0.000258864
5.34058e-06
0.000256217
5.2575e-06
0.000253612
5.17416e-06
0.000251052
5.09071e-06
0.000248535
5.00731e-06
0.00024606
4.92407e-06
0.000243629
4.84106e-06
0.00024124
4.75839e-06
0.000238894
4.67615e-06
0.00023659
4.59441e-06
0.000234327
4.51324e-06
0.000232106
4.43273e-06
0.000229925
4.35291e-06
0.000227785
4.27385e-06
0.000225685
4.19562e-06
0.000223625
4.11818e-06
0.000221604
4.04157e-06
0.000219621
3.96594e-06
0.000217676
3.89132e-06
0.000215769
3.81774e-06
0.000213898
3.74521e-06
0.000212064
3.67377e-06
0.000210265
3.60342e-06
0.000208502
3.53419e-06
0.000206773
3.46608e-06
0.000205078
3.3991e-06
0.000203416
3.33327e-06
0.000201788
3.26858e-06
0.000200191
3.20504e-06
0.000198626
3.14266e-06
0.000197092
3.08142e-06
0.000195588
3.02133e-06
0.000194114
2.96238e-06
0.00019267
2.90457e-06
0.000191254
2.84788e-06
0.000189866
2.79232e-06
0.000188506
2.73785e-06
0.000187173
2.68454e-06
0.000185866
2.63231e-06
0.000184585
2.58095e-06
0.000183329
2.53089e-06
0.000182098
2.48189e-06
0.000180891
2.4339e-06
0.000179708
2.38692e-06
0.000178548
2.34094e-06
0.000177411
2.29593e-06
0.000176296
2.2519e-06
0.000175203
2.20883e-06
0.000174131
2.1667e-06
0.00017308
2.12547e-06
0.00017205
2.08514e-06
0.000171039
2.0457e-06
0.000170047
2.00711e-06
0.000169075
1.96937e-06
0.000168122
1.93246e-06
0.000167186
1.89636e-06
0.000166269
1.86106e-06
0.000165368
1.82654e-06
0.000164485
1.79278e-06
0.000163619
1.75978e-06
0.000162769
1.72749e-06
0.000161934
1.69594e-06
0.000161116
1.66511e-06
0.000160312
1.63496e-06
0.000159524
1.60549e-06
0.00015875
1.57666e-06
0.00015799
1.54848e-06
0.000157244
1.52091e-06
0.000156512
1.49396e-06
0.000155793
1.4676e-06
0.000155087
1.44182e-06
0.000154393
1.4166e-06
0.000153712
1.39194e-06
0.000153044
1.36783e-06
0.000152387
1.34424e-06
0.000151742
1.32115e-06
0.000151108
1.29858e-06
0.000150486
1.27649e-06
0.000149874
1.25489e-06
0.000149273
1.23375e-06
0.000148683
1.21306e-06
0.000148103
1.19283e-06
0.000147532
1.17303e-06
0.000146972
1.15365e-06
0.000146421
1.13468e-06
0.000145879
1.11613e-06
0.000145347
1.09796e-06
0.000144824
1.08018e-06
0.000144309
1.06278e-06
0.000143803
1.04575e-06
0.000143306
1.02907e-06
0.000142816
1.01274e-06
0.000142335
9.96755e-07
0.000141862
9.81101e-07
0.000141396
9.65772e-07
0.000140938
9.50763e-07
0.000140488
9.36063e-07
0.000140045
9.21667e-07
0.000139608
9.07566e-07
0.000139179
8.93755e-07
0.000138757
8.80224e-07
0.000138341
8.6697e-07
0.000137932
8.53989e-07
0.00013753
8.41268e-07
0.000137133
8.28805e-07
0.000136743
8.16593e-07
0.000136359
8.04625e-07
0.000135981
7.92898e-07
0.000135608
7.81406e-07
0.000135242
7.70144e-07
0.00013488
7.59105e-07
0.000134525
7.48284e-07
0.000134174
7.37675e-07
0.000133829
7.27276e-07
0.000133489
7.17083e-07
0.000133155
7.0709e-07
0.000132825
6.97296e-07
0.0001325
6.87695e-07
0.000132179
6.78279e-07
0.000131864
6.69046e-07
0.000131552
6.59998e-07
0.000131246
6.51122e-07
0.000130944
6.42417e-07
0.000130646
6.33883e-07
0.000130352
6.25514e-07
0.000130062
6.17305e-07
0.000129777
6.09259e-07
0.000129495
6.01369e-07
0.000129218
5.93632e-07
0.000128944
5.86044e-07
0.000128674
5.78596e-07
0.000128408
5.71294e-07
0.000128145
5.64134e-07
0.000127886
5.57118e-07
0.00012763
5.50235e-07
0.000127378
5.43486e-07
0.000127129
5.36865e-07
0.000126883
5.30375e-07
0.000126641
5.2401e-07
0.000126401
5.17767e-07
0.000126165
5.11647e-07
0.000125932
5.05648e-07
0.000125702
4.99765e-07
0.000125474
4.93999e-07
0.00012525
4.88347e-07
0.000125028
4.8281e-07
0.000124809
4.77376e-07
0.000124593
4.7206e-07
0.000124379
4.66843e-07
0.000124168
4.61726e-07
0.00012396
4.56713e-07
0.000123754
4.51805e-07
0.00012355
4.46998e-07
0.000123349
4.4229e-07
0.00012315
4.37679e-07
0.000122954
4.33158e-07
0.000122759
4.28732e-07
0.000122567
4.24392e-07
0.000122377
4.20139e-07
0.000122189
4.15977e-07
0.000122004
4.11893e-07
0.00012182
4.0789e-07
0.000121638
4.03964e-07
0.000121458
4.00108e-07
0.000121281
3.96332e-07
0.000121105
3.92618e-07
0.00012093
3.8897e-07
0.000120758
3.85369e-07
0.000120588
3.81824e-07
0.000120419
3.78326e-07
0.000120252
3.7486e-07
0.000120086
3.71431e-07
0.000119923
3.68004e-07
0.000119761
3.64615e-07
0.0001196
3.61192e-07
0.000119442
3.57804e-07
0.000119285
3.5435e-07
0.000119129
3.50886e-07
0.000118975
3.47386e-07
0.000118823
3.43736e-07
0.000118673
3.40121e-07
0.000118524
3.36334e-07
0.000118377
3.32432e-07
0.000118232
3.284e-07
0.000118088
3.24228e-07
0.000117947
3.19889e-07
0.000117807
3.15385e-07
0.000117669
3.10683e-07
0.000117533
3.05799e-07
0.000117399
3.0071e-07
0.000117267
2.95455e-07
0.000117138
2.90019e-07
0.00011701
2.84468e-07
0.000116885
2.78796e-07
0.000116762
2.73104e-07
0.000116641
2.67406e-07
0.000116523
2.61823e-07
0.000116406
2.56392e-07
0.000116292
2.5136e-07
0.00011618
2.46776e-07
0.000116069
2.42804e-07
0.00011596
2.39354e-07
0.000115853
2.36689e-07
0.000115747
2.34753e-07
0.000115642
2.33899e-07
0.000115537
2.33997e-07
0.000115433
2.3548e-07
0.000115328
2.38117e-07
0.000115223
2.42509e-07
0.000115117
2.48219e-07
0.000115009
2.56185e-07
0.000114898
2.65604e-07
0.000114785
2.77983e-07
0.000114667
2.92118e-07
0.000114545
3.09775e-07
0.000114416
3.2916e-07
0.000114281
3.52682e-07
0.000114136
3.77204e-07
0.000113983
4.05692e-07
0.000113819
4.3312e-07
0.000113644
4.63453e-07
0.000113456
4.89613e-07
0.000113257
5.1717e-07
0.000113046
5.3867e-07
0.000112824
5.61049e-07
0.000112593
5.7493e-07
0.000112355
5.85625e-07
0.000112115
5.80372e-07
0.000111878
5.64028e-07
0.000111646
5.29011e-07
0.000111427
4.84082e-07
0.000111219
4.32033e-07
0.000111029
3.83198e-07
0.000110844
3.52658e-07
0.000110665
3.61279e-07
0.000110461
4.63939e-07
0.000110234
6.42706e-07
0.000109932
9.39775e-07
0.000109544
1.25377e-06
0.000109049
1.48562e-06
0.000108509
1.56623e-06
0.00010794
1.55977e-06
0.000107375
1.48801e-06
0.000106817
1.38708e-06
0.000106309
1.20803e-06
0.000105859
1.00353e-06
8.673e-07
-9.13328e-05
0.000231546
4.22227e-05
-0.000115766
0.000123194
-0.000115629
2.57537e-05
-9.54622e-05
-5.21537e-05
-6.11628e-05
-0.000105514
-1.80752e-05
-0.000137081
2.92321e-05
-0.000153296
7.73318e-05
-0.000156266
0.000123683
-0.000150945
0.000166791
-0.000140597
0.000206209
-0.000127976
0.000241854
-0.000115124
0.000273849
-0.000102928
0.000302435
-9.17132e-05
0.000327904
-8.15558e-05
0.00035055
-7.24268e-05
0.000370651
-6.42454e-05
0.000388471
-5.69404e-05
0.000404256
-5.04371e-05
0.00041823
-4.46635e-05
0.000430599
-3.95528e-05
0.000441551
-3.50419e-05
0.000451256
-3.10691e-05
0.000459866
-2.75766e-05
0.000467517
-2.45102e-05
0.000474326
-2.18195e-05
0.000480399
-1.946e-05
0.000485827
-1.739e-05
0.000490691
-1.55731e-05
0.000495059
-1.39766e-05
0.000498992
-1.25703e-05
0.000502542
-1.1329e-05
0.000505752
-1.02295e-05
0.000508662
-9.25203e-06
0.000511305
-8.37934e-06
0.000513707
-7.59687e-06
0.000515894
-6.89166e-06
0.000517885
-6.25294e-06
0.000519699
-5.67078e-06
0.00052135
-5.13757e-06
0.00052285
-4.64518e-06
0.000524211
-4.18894e-06
0.000525441
-3.76208e-06
0.000526548
-3.36245e-06
0.000527539
-2.98338e-06
0.000528419
-2.62547e-06
0.000529193
-2.28115e-06
0.000529865
-1.95417e-06
0.000530438
-1.63483e-06
0.000530915
-1.33165e-06
0.000531301
-1.03226e-06
0.000531591
-7.48682e-07
0.000531795
-4.65419e-07
0.000531908
-1.92901e-07
0.000531937
7.11218e-08
0.000531882
3.41287e-07
0.000531741
5.95789e-07
0.000531519
8.49444e-07
0.000531214
1.09689e-06
0.000530828
1.33988e-06
0.000530361
1.57761e-06
0.000529814
1.81137e-06
0.000529188
2.04014e-06
0.000528482
2.26419e-06
0.000527698
2.48337e-06
0.000526836
2.69643e-06
0.000525897
2.90511e-06
0.00052488
3.10772e-06
0.000523786
3.30576e-06
0.000522615
3.49794e-06
0.000521367
3.68566e-06
0.000520043
3.86707e-06
0.00051864
4.04292e-06
0.000517161
4.21395e-06
0.000515602
4.38005e-06
0.000513964
4.54082e-06
0.000512246
4.69813e-06
0.000510446
4.84969e-06
0.000508563
4.9983e-06
0.000506595
5.14274e-06
0.000504541
5.28447e-06
0.0005024
5.42292e-06
0.00050017
5.56065e-06
0.000497849
5.69685e-06
0.000495437
5.83253e-06
0.000492934
5.96529e-06
0.000490338
6.10128e-06
0.00048765
6.23721e-06
0.00048487
6.37482e-06
0.000481998
6.51439e-06
0.000479037
6.65643e-06
0.000475988
6.80138e-06
0.000472854
6.95001e-06
0.000469639
7.10171e-06
0.000466348
7.25585e-06
0.000462983
7.414e-06
0.000459551
7.57298e-06
0.000456055
7.73928e-06
0.000452501
7.90672e-06
0.000448893
8.07588e-06
0.000445237
8.24591e-06
0.000441539
8.4163e-06
0.000437803
8.58608e-06
0.000434034
8.7545e-06
0.000430237
8.9202e-06
0.000426417
9.08149e-06
0.000422576
9.23853e-06
0.000418719
9.39031e-06
0.000414848
9.53614e-06
0.000410965
9.67606e-06
0.000407073
9.80898e-06
0.000403176
9.93184e-06
0.000399276
1.00457e-05
0.000395376
1.015e-05
0.000391478
1.02443e-05
0.000387584
1.03288e-05
0.000383696
1.04027e-05
0.000379817
1.04662e-05
0.000375948
1.05195e-05
0.000372092
1.05624e-05
0.00036825
1.05953e-05
0.000364424
1.06181e-05
0.000360617
1.06309e-05
0.000356831
1.06332e-05
0.000353067
1.06263e-05
0.000349326
1.06116e-05
0.00034561
1.05887e-05
0.000341921
1.05575e-05
0.000338258
1.05185e-05
0.000334626
1.0472e-05
0.000331024
1.04185e-05
0.000327453
1.03587e-05
0.000323917
1.02921e-05
0.000320415
1.02198e-05
0.000316948
1.01417e-05
0.000313518
1.00581e-05
0.000310126
9.96918e-06
0.000306771
9.87629e-06
0.000303457
9.77893e-06
0.000300182
9.67777e-06
0.000296949
9.57293e-06
0.000293757
9.46473e-06
0.000290607
9.35352e-06
0.000287501
9.2397e-06
0.000284436
9.12373e-06
0.000281416
9.00503e-06
0.00027844
8.8845e-06
0.000275507
8.76216e-06
0.000272619
8.63848e-06
0.000269775
8.51367e-06
0.000266975
8.38775e-06
0.00026422
8.26096e-06
0.000261509
8.13415e-06
0.000258843
8.00687e-06
0.000256221
7.87948e-06
0.000253643
7.75192e-06
0.00025111
7.62444e-06
0.00024862
7.49725e-06
0.000246173
7.37047e-06
0.00024377
7.24422e-06
0.00024141
7.11864e-06
0.000239092
6.99384e-06
0.000236817
6.86992e-06
0.000234583
6.74699e-06
0.00023239
6.62514e-06
0.000230239
6.50443e-06
0.000228128
6.38497e-06
0.000226057
6.26671e-06
0.000224025
6.14965e-06
0.000222033
6.03405e-06
0.000220079
5.92003e-06
0.000218162
5.8076e-06
0.000216283
5.69677e-06
0.000214441
5.58758e-06
0.000212635
5.48004e-06
0.000210864
5.37419e-06
0.000209128
5.27003e-06
0.000207427
5.16759e-06
0.000205759
5.06688e-06
0.000204124
4.96791e-06
0.000202522
4.87067e-06
0.000200952
4.77519e-06
0.000199413
4.68144e-06
0.000197905
4.58944e-06
0.000196427
4.49918e-06
0.000194979
4.41064e-06
0.00019356
4.32382e-06
0.000192169
4.2387e-06
0.000190806
4.15527e-06
0.00018947
4.0735e-06
0.000188161
3.99337e-06
0.000186879
3.91485e-06
0.000185622
3.83799e-06
0.00018439
3.76291e-06
0.000183182
3.68935e-06
0.000181999
3.61731e-06
0.000180839
3.54679e-06
0.000179702
3.47776e-06
0.000178588
3.41022e-06
0.000177496
3.34416e-06
0.000176425
3.27952e-06
0.000175375
3.21627e-06
0.000174347
3.1544e-06
0.000173338
3.09386e-06
0.000172349
3.03465e-06
0.000171379
2.97673e-06
0.000170429
2.92008e-06
0.000169496
2.86467e-06
0.000168582
2.81049e-06
0.000167686
2.75749e-06
0.000166807
2.70567e-06
0.000165944
2.65501e-06
0.000165099
2.60547e-06
0.000164269
2.55702e-06
0.000163455
2.50969e-06
0.000162657
2.46342e-06
0.000161874
2.41817e-06
0.000161106
2.37391e-06
0.000160352
2.33064e-06
0.000159612
2.28832e-06
0.000158886
2.24693e-06
0.000158173
2.20646e-06
0.000157474
2.16687e-06
0.000156788
2.12816e-06
0.000156114
2.09029e-06
0.000155453
2.05326e-06
0.000154803
2.01703e-06
0.000154166
1.9816e-06
0.00015354
1.94693e-06
0.000152926
1.91301e-06
0.000152322
1.87983e-06
0.00015173
1.84738e-06
0.000151148
1.81562e-06
0.000150577
1.78454e-06
0.000150015
1.75413e-06
0.000149464
1.72438e-06
0.000148922
1.69525e-06
0.00014839
1.66675e-06
0.000147868
1.63886e-06
0.000147354
1.61156e-06
0.000146849
1.58483e-06
0.000146353
1.55867e-06
0.000145866
1.53306e-06
0.000145387
1.50799e-06
0.000144916
1.48344e-06
0.000144454
1.4594e-06
0.000143999
1.43587e-06
0.000143552
1.41281e-06
0.000143113
1.39024e-06
0.00014268
1.36814e-06
0.000142256
1.34648e-06
0.000141838
1.32527e-06
0.000141427
1.3045e-06
0.000141023
1.28415e-06
0.000140626
1.26421e-06
0.000140235
1.24468e-06
0.000139851
1.22554e-06
0.000139473
1.20679e-06
0.000139101
1.18842e-06
0.000138735
1.17041e-06
0.000138376
1.15277e-06
0.000138022
1.13548e-06
0.000137673
1.11853e-06
0.00013733
1.10192e-06
0.000136993
1.08564e-06
0.000136661
1.06967e-06
0.000136334
1.05402e-06
0.000136013
1.03868e-06
0.000135696
1.02364e-06
0.000135384
1.0089e-06
0.000135078
9.9445e-07
0.000134776
9.8028e-07
0.000134478
9.66381e-07
0.000134186
9.52759e-07
0.000133897
9.394e-07
0.000133613
9.26295e-07
0.000133334
9.13447e-07
0.000133059
9.00847e-07
0.000132787
8.88488e-07
0.00013252
8.7637e-07
0.000132257
8.64487e-07
0.000131998
8.5283e-07
0.000131743
8.41401e-07
0.000131491
8.30186e-07
0.000131243
8.19187e-07
0.000130999
8.08398e-07
0.000130758
7.97821e-07
0.000130521
7.87446e-07
0.000130287
7.77271e-07
0.000130057
7.67289e-07
0.00012983
7.575e-07
0.000129606
7.479e-07
0.000129385
7.38483e-07
0.000129167
7.29247e-07
0.000128953
7.20193e-07
0.000128741
7.11311e-07
0.000128533
7.02601e-07
0.000128327
6.94062e-07
0.000128124
6.85692e-07
0.000127924
6.77479e-07
0.000127727
6.69432e-07
0.000127532
6.61542e-07
0.00012734
6.53801e-07
0.00012715
6.46213e-07
0.000126963
6.38779e-07
0.000126779
6.31494e-07
0.000126597
6.24353e-07
0.000126417
6.17357e-07
0.00012624
6.10496e-07
0.000126065
6.03773e-07
0.000125892
5.97183e-07
0.000125721
5.9072e-07
0.000125553
5.8439e-07
0.000125387
5.7818e-07
0.000125222
5.7209e-07
0.00012506
5.66118e-07
0.0001249
5.60253e-07
0.000124742
5.545e-07
0.000124586
5.48848e-07
0.000124431
5.43297e-07
0.000124279
5.37829e-07
0.000124128
5.32444e-07
0.00012398
5.27138e-07
0.000123833
5.21894e-07
0.000123687
5.16713e-07
0.000123544
5.11563e-07
0.000123402
5.06469e-07
0.000123262
5.01369e-07
0.000123123
4.96313e-07
0.000122986
4.91217e-07
0.000122851
4.8612e-07
0.000122717
4.8099e-07
0.000122585
4.75743e-07
0.000122455
4.705e-07
0.000122326
4.65111e-07
0.000122199
4.59602e-07
0.000122074
4.53967e-07
0.00012195
4.48172e-07
0.000121827
4.42211e-07
0.000121707
4.36059e-07
0.000121588
4.29712e-07
0.00012147
4.23151e-07
0.000121355
4.16393e-07
0.000121241
4.09428e-07
0.000121128
4.02297e-07
0.000121018
3.95009e-07
0.000120909
3.87633e-07
0.000120802
3.80191e-07
0.000120696
3.72798e-07
0.000120593
3.65487e-07
0.000120491
3.58401e-07
0.00012039
3.51657e-07
0.000120292
3.45464e-07
0.000120195
3.39846e-07
0.000120099
3.34939e-07
0.000120005
3.30789e-07
0.000119912
3.27608e-07
0.000119821
3.25467e-07
0.00011973
3.2459e-07
0.00011964
3.25051e-07
0.000119551
3.2707e-07
0.000119463
3.30784e-07
0.000119375
3.36349e-07
0.000119287
3.44093e-07
0.000119199
3.54006e-07
0.00011911
3.66675e-07
0.00011902
3.82066e-07
0.000118929
4.00789e-07
0.000118836
4.2246e-07
0.00011874
4.48008e-07
0.000118642
4.7618e-07
0.000118539
5.07981e-07
0.000118432
5.40808e-07
0.000118319
5.7603e-07
0.000118199
6.09847e-07
0.000118072
6.44154e-07
0.000117936
6.74797e-07
0.000117792
7.04244e-07
0.00011764
7.26904e-07
0.000117483
7.43262e-07
0.000117318
7.45053e-07
0.00011715
7.31848e-07
0.000116977
7.02333e-07
0.000116803
6.57736e-07
0.000116626
6.08993e-07
0.000116453
5.5663e-07
0.000116274
5.31787e-07
0.000116098
5.37385e-07
0.000115917
6.45013e-07
0.000115752
8.07515e-07
0.000115589
1.10284e-06
0.000115416
1.427e-06
0.000115204
1.69738e-06
0.000114973
1.79729e-06
0.000114715
1.81704e-06
0.000114447
1.75608e-06
0.000114169
1.66567e-06
0.00011388
1.49732e-06
0.000113564
1.31862e-06
1.18505e-06
-4.51739e-05
0.00025263
2.40899e-05
-5.08371e-05
0.000128857
-3.75774e-05
1.2494e-05
-1.02197e-05
-7.95114e-05
2.57715e-05
-0.000141505
6.7218e-05
-0.000178528
0.000110899
-0.000196977
0.000154213
-0.00019958
0.000195286
-0.000192017
0.000233294
-0.000178605
0.000268055
-0.000162737
0.000299531
-0.000146601
0.000327823
-0.00013122
0.000353122
-0.000117012
0.000375662
-0.000104096
0.000395681
-9.2446e-05