/*--------------------------------*- C++ -*----------------------------------*\
| =========                 |                                                 |
| \\      /  F ield         | OpenFOAM: The Open Source CFD Toolbox           |
|  \\    /   O peration     | Version:  v2012                                 |
|   \\  /    A nd           | Website:  www.openfoam.com                      |
|    \\/     M anipulation  |                                                 |
\*---------------------------------------------------------------------------*/
FoamFile
{
    version     2.0;
    format      ascii;
    class       volScalarField;
    location    "80";
    object      k;
}
// * * * * * * * * * * * * * * * * * * * * * * * * * * * * * * * * * * * * * //

dimensions      [0 2 -2 0 0 0 0];


internalField   nonuniform List<scalar> 
25248
(
0.0090738
0.0145608
0.0191704
0.0227926
0.0250055
0.0259001
0.0259401
0.0250256
0.0236685
0.0222256
0.0207581
0.0193659
0.0181169
0.0170122
0.0160399
0.0151854
0.0144324
0.0137664
0.0131741
0.0126457
0.0121728
0.0117476
0.0113636
0.0110156
0.0106987
0.0104093
0.010144
0.00990027
0.00967565
0.009468
0.00927586
0.00909715
0.0089312
0.00877624
0.00863153
0.00849611
0.00836915
0.00824995
0.00813775
0.00803203
0.00793208
0.00783754
0.0077477
0.00766241
0.00758091
0.0075033
0.00742871
0.00735752
0.0072887
0.00722289
0.00715889
0.00709754
0.00703767
0.0069799
0.00692393
0.00686936
0.00681599
0.00676372
0.00671238
0.00666195
0.00661225
0.00656336
0.00651508
0.00646754
0.00642055
0.00637425
0.00632846
0.00628334
0.00623874
0.00619481
0.00615143
0.00610879
0.00606676
0.00602562
0.00598518
0.00594582
0.00590737
0.00587012
0.00583417
0.00579954
0.00576653
0.00573526
0.00570572
0.00567844
0.00565339
0.00563051
0.00561025
0.00559241
0.00557781
0.00556573
0.0055577
0.00555177
0.00555121
0.00555324
0.00555829
0.00556661
0.0055782
0.00559282
0.00561022
0.00563009
0.00565204
0.00567568
0.00570055
0.00572619
0.00575215
0.00577813
0.0058034
0.00582763
0.00585042
0.00587151
0.00589053
0.00590727
0.00592144
0.005933
0.00594148
0.00594731
0.00594934
0.00594807
0.00594412
0.005937
0.00592644
0.00591261
0.0058953
0.0058749
0.00585078
0.00582334
0.00579306
0.00576014
0.00572461
0.00568649
0.00564579
0.00560259
0.00555699
0.00550912
0.00545912
0.00540714
0.00535332
0.0052978
0.00524073
0.00518224
0.00512246
0.00506153
0.00499958
0.00493671
0.00487307
0.00480875
0.00474388
0.00467856
0.00461289
0.00454698
0.0044809
0.00441475
0.00434864
0.00428262
0.00421678
0.00415117
0.00408582
0.00402083
0.00395627
0.00389219
0.00382864
0.00376568
0.00370334
0.00364165
0.00358066
0.00352039
0.00346086
0.00340212
0.00334417
0.00328703
0.00323072
0.00317527
0.00312067
0.00306693
0.00301407
0.00296209
0.002911
0.00286079
0.00281147
0.00276303
0.00271548
0.00266881
0.00262301
0.00257809
0.00253403
0.00249084
0.00244849
0.00240698
0.00236631
0.00232646
0.00228742
0.00224918
0.00221174
0.00217507
0.00213917
0.00210402
0.00206962
0.00203595
0.00200299
0.00197074
0.00193918
0.0019083
0.00187808
0.00184852
0.00181959
0.0017913
0.00176362
0.00173654
0.00171005
0.00168414
0.00165879
0.001634
0.00160975
0.00158602
0.00156282
0.00154011
0.00151791
0.00149618
0.00147493
0.00145414
0.0014338
0.00141389
0.00139442
0.00137537
0.00135674
0.00133849
0.00132065
0.00130318
0.00128609
0.00126936
0.00125299
0.00123696
0.00122128
0.00120592
0.00119089
0.00117618
0.00116177
0.00114767
0.00113385
0.00112033
0.00110709
0.00109411
0.00108141
0.00106897
0.00105678
0.00104484
0.00103314
0.00102169
0.00101046
0.000999457
0.000988677
0.000978113
0.000967759
0.000957613
0.000947669
0.000937917
0.000928362
0.000918991
0.000909805
0.000900799
0.000891967
0.000883305
0.000874813
0.00086648
0.000858311
0.000850296
0.000842433
0.00083472
0.000827153
0.000819727
0.000812439
0.000805291
0.000798272
0.000791382
0.000784621
0.000777984
0.000771467
0.00076507
0.000758787
0.000752617
0.000746558
0.000740605
0.000734759
0.000729017
0.000723375
0.00071783
0.000712382
0.000707027
0.000701765
0.000696591
0.000691506
0.000686505
0.000681589
0.000676753
0.000671998
0.000667321
0.000662718
0.000658191
0.000653735
0.000649351
0.000645035
0.000640786
0.000636607
0.000632489
0.000628434
0.000624442
0.000620509
0.000616634
0.000612817
0.000609056
0.00060535
0.000601697
0.000598097
0.000594548
0.00059105
0.000587601
0.0005842
0.000580847
0.00057754
0.000574281
0.000571067
0.0005679
0.000564775
0.0005617
0.000558665
0.000555681
0.000552738
0.000549847
0.000547
0.000544202
0.000541454
0.000538758
0.000536114
0.00053353
0.000530996
0.000528525
0.000526119
0.000523779
0.000521507
0.000519307
0.000517183
0.000515135
0.000513168
0.000511282
0.000509484
0.000507763
0.000506128
0.000504567
0.000503088
0.000501676
0.000500322
0.000499
0.000497704
0.000496413
0.000495121
0.000493814
0.000492472
0.000491073
0.000489591
0.000488002
0.000486277
0.000484385
0.000482296
0.000479972
0.000477403
0.000474468
0.000471173
0.000467453
0.000463241
0.000458481
0.000453126
0.000447163
0.000440599
0.000433496
0.000425938
0.000418023
0.000409813
0.000401424
0.00039319
0.000385523
0.00037849
0.0003723
0.000366721
0.000361467
0.000356125
0.000350239
0.000342746
0.000332162
0.000316975
0.000298133
0.000283519
0.000276723
0.000274545
0.000275156
0.000277579
0.000282303
0.000287852
0.000295347
0.000303056
0.000316375
0.0155306
0.0295351
0.0422935
0.0520335
0.0575096
0.0599384
0.0598939
0.0579966
0.0548812
0.0513422
0.0476759
0.0441738
0.0409866
0.0381281
0.0355784
0.0333066
0.0312779
0.0294583
0.0278195
0.026339
0.0249973
0.0237771
0.0226641
0.0216458
0.0207114
0.019852
0.0190595
0.0183269
0.0176484
0.017018
0.016432
0.0158848
0.0153745
0.0148963
0.0144483
0.0140272
0.0136316
0.0132585
0.0129072
0.0125748
0.0122609
0.0119629
0.0116808
0.0114119
0.0111569
0.010913
0.0106814
0.0104592
0.0102479
0.0100448
0.00985151
0.00966544
0.00948802
0.00931754
0.00915366
0.00899615
0.00884477
0.0086993
0.00855948
0.00842516
0.00829616
0.00817247
0.00805385
0.00794044
0.00783195
0.00772865
0.00763014
0.00753683
0.00744826
0.0073649
0.00728635
0.00721299
0.00714474
0.00708181
0.00702408
0.00697251
0.00692594
0.00688625
0.00685233
0.00682481
0.00680488
0.00679105
0.00678476
0.00678717
0.0067953
0.00681046
0.00683328
0.00686402
0.0069028
0.00694964
0.00700445
0.00706702
0.00713706
0.00721418
0.0072979
0.00738765
0.00748285
0.00758269
0.00768657
0.00779384
0.00790375
0.00801561
0.00812859
0.00824206
0.00835518
0.00846713
0.00857724
0.00868495
0.00878959
0.00889065
0.00898751
0.00907966
0.0091667
0.00924814
0.00932362
0.00939282
0.00945537
0.00951094
0.00955943
0.00960094
0.00963462
0.00966174
0.00967999
0.00969319
0.00969464
0.00969083
0.00968128
0.00966524
0.0096425
0.0096131
0.0095772
0.00953505
0.00948688
0.00943298
0.00937364
0.00930913
0.00923975
0.00916579
0.00908755
0.00900528
0.00891929
0.00882985
0.00873724
0.00864173
0.00854358
0.00844304
0.00834036
0.00823579
0.00812957
0.00802191
0.00791302
0.00780312
0.00769241
0.00758105
0.00746921
0.00735704
0.00724465
0.00713227
0.00702008
0.00690819
0.00679674
0.00668582
0.00657556
0.00646603
0.00635735
0.00624958
0.00614281
0.0060371
0.00593252
0.00582913
0.00572698
0.00562611
0.00552656
0.00542838
0.00533159
0.00523621
0.00514228
0.00504981
0.00495881
0.0048693
0.00478128
0.00469476
0.00460975
0.00452625
0.00444425
0.00436375
0.00428473
0.00420721
0.00413116
0.00405657
0.00398343
0.00391173
0.00384145
0.00377258
0.00370509
0.00363897
0.00357421
0.00351077
0.00344865
0.00338782
0.00332826
0.00326995
0.00321287
0.00315699
0.0031023
0.00304878
0.00299639
0.00294513
0.00289496
0.00284587
0.00279783
0.00275083
0.00270484
0.00265984
0.0026158
0.00257272
0.00253056
0.00248932
0.00244896
0.00240947
0.00237083
0.00233302
0.00229602
0.00225981
0.00222438
0.00218971
0.00215578
0.00212257
0.00209006
0.00205825
0.00202712
0.00199664
0.00196681
0.0019376
0.00190901
0.00188102
0.00185361
0.00182677
0.00180049
0.00177477
0.00174957
0.00172488
0.00170072
0.00167704
0.00165385
0.00163113
0.00160888
0.00158708
0.00156572
0.00154479
0.00152428
0.00150418
0.00148448
0.00146518
0.00144626
0.00142771
0.00140954
0.00139171
0.00137424
0.00135711
0.00134031
0.00132384
0.00130769
0.00129185
0.00127631
0.00126107
0.00124612
0.00123146
0.00121707
0.00120295
0.0011891
0.00117551
0.00116217
0.00114908
0.00113623
0.00112362
0.00111123
0.00109907
0.00108714
0.00107542
0.0010639
0.0010526
0.00104149
0.00103058
0.00101987
0.00100934
0.000998989
0.000988821
0.00097883
0.000969006
0.000959352
0.000949857
0.000940526
0.000931347
0.00092232
0.000913444
0.000904711
0.000896122
0.000887667
0.000879352
0.000871164
0.000863107
0.000855181
0.000847373
0.000839689
0.000832118
0.000824667
0.000817324
0.000810096
0.00080297
0.000795956
0.00078904
0.000782229
0.000775515
0.000768899
0.000762379
0.000755956
0.000749622
0.000743383
0.000737232
0.000731175
0.000725209
0.000719328
0.000713544
0.000707845
0.000702246
0.000696729
0.00069132
0.000685994
0.000680779
0.000675662
0.000670644
0.000665746
0.000660961
0.000656281
0.000651735
0.000647318
0.000643037
0.000638896
0.000634902
0.000631057
0.00062737
0.000623841
0.000620479
0.000617276
0.000614238
0.000611347
0.000608608
0.000605999
0.000603522
0.000601128
0.000598774
0.00059642
0.000594055
0.000591657
0.000589193
0.000586624
0.000583906
0.000580994
0.000577842
0.000574405
0.00057064
0.000566504
0.000561955
0.000557009
0.000551483
0.000545444
0.000538866
0.000531737
0.000524075
0.000515935
0.000507409
0.000498613
0.000489674
0.000480896
0.000472259
0.000463598
0.000454705
0.000445651
0.000437492
0.000430782
0.00042621
0.000423829
0.000423275
0.000423528
0.000423884
0.000422424
0.000414435
0.000392329
0.000348996
0.000288767
0.000243193
0.000217589
0.000203091
0.000197378
0.000196112
0.000199078
0.000208746
0.00022807
0.000267287
0.0194728
0.036175
0.0523709
0.0652534
0.0727886
0.0757098
0.0751712
0.0724574
0.0683519
0.0637012
0.0589732
0.054563
0.0505779
0.0470209
0.0438574
0.0410429
0.0385289
0.036271
0.0342346
0.0323911
0.030716
0.0291886
0.0277917
0.0265104
0.025332
0.0242457
0.0232419
0.0223121
0.0214491
0.0206459
0.0198978
0.0191981
0.0185441
0.0179305
0.0173543
0.016812
0.0163015
0.0158195
0.0153647
0.014934
0.0145264
0.0141394
0.0137722
0.0134224
0.0130897
0.0127721
0.0124693
0.0121797
0.0119032
0.0116385
0.0113853
0.011143
0.0109108
0.0106889
0.010476
0.0102724
0.0100771
0.00989009
0.00971104
0.00953981
0.00937617
0.00922005
0.00907131
0.00893005
0.0087961
0.00866974
0.00855061
0.00843931
0.00833532
0.00823944
0.00815089
0.00807091
0.0079988
0.00793499
0.00788055
0.00783473
0.00779791
0.00777241
0.00775444
0.00774958
0.00775452
0.0077684
0.00779283
0.0078286
0.0078757
0.00793408
0.00800369
0.00808434
0.00817583
0.00827787
0.00839006
0.0085118
0.00864241
0.00878117
0.00892723
0.00907965
0.00923746
0.00939966
0.00956521
0.00973309
0.00990222
0.0100718
0.0102404
0.0104072
0.0105712
0.0107317
0.0108878
0.0110389
0.0111843
0.0113233
0.0114553
0.0115799
0.0116965
0.0118047
0.0119043
0.0119948
0.012076
0.0121476
0.0122096
0.0122619
0.0123043
0.0123371
0.0123593
0.0123728
0.0123739
0.0123682
0.0123543
0.0123316
0.0123
0.0122599
0.0122116
0.0121554
0.0120916
0.0120206
0.0119426
0.0118582
0.0117676
0.0116712
0.0115695
0.0114626
0.0113511
0.0112352
0.0111153
0.0109918
0.010865
0.0107352
0.0106027
0.0104679
0.010331
0.0101923
0.0100521
0.00991069
0.00976826
0.00962504
0.00948126
0.0093371
0.00919275
0.00904849
0.0089045
0.00876093
0.00861794
0.00847569
0.0083343
0.00819389
0.00805458
0.00791648
0.00777968
0.00764428
0.00751035
0.00737796
0.00724719
0.00711808
0.00699068
0.00686506
0.00674123
0.00661924
0.00649911
0.00638087
0.00626453
0.00615011
0.00603762
0.00592707
0.00581845
0.00571177
0.00560703
0.00550422
0.00540332
0.00530433
0.00520724
0.00511203
0.00501869
0.00492718
0.0048375
0.00474963
0.00466354
0.0045792
0.00449659
0.0044157
0.00433648
0.00425892
0.00418298
0.00410865
0.00403589
0.00396467
0.00389497
0.00382675
0.00376
0.00369468
0.00363076
0.00356822
0.00350702
0.00344715
0.00338857
0.00333125
0.00327517
0.0032203
0.00316661
0.00311409
0.00306269
0.00301241
0.00296321
0.00291507
0.00286796
0.00282186
0.00277676
0.00273262
0.00268942
0.00264714
0.00260576
0.00256526
0.00252563
0.00248683
0.00244885
0.00241167
0.00237526
0.00233963
0.00230474
0.00227057
0.00223711
0.00220435
0.00217227
0.00214084
0.00211007
0.00207992
0.00205039
0.00202146
0.00199312
0.00196535
0.00193814
0.00191148
0.00188535
0.00185974
0.00183465
0.00181005
0.00178594
0.0017623
0.00173913
0.00171641
0.00169414
0.00167229
0.00165087
0.00162987
0.00160926
0.00158905
0.00156923
0.00154978
0.0015307
0.00151199
0.00149362
0.00147559
0.0014579
0.00144054
0.0014235
0.00140677
0.00139034
0.00137422
0.00135839
0.00134284
0.00132757
0.00131257
0.00129784
0.00128336
0.00126914
0.00125517
0.00124145
0.00122795
0.00121469
0.00120165
0.00118884
0.00117624
0.00116385
0.00115166
0.00113968
0.00112789
0.00111629
0.00110488
0.00109366
0.00108261
0.00107173
0.00106103
0.00105049
0.00104011
0.0010299
0.00101983
0.00100992
0.00100016
0.00099054
0.000981062
0.000971723
0.000962518
0.000953448
0.000944505
0.00093569
0.000926999
0.000918432
0.000909983
0.000901655
0.000893441
0.000885345
0.000877361
0.000869493
0.000861739
0.000854094
0.000846568
0.000839152
0.000831859
0.000824673
0.000817619
0.000810675
0.000803868
0.000797186
0.000790634
0.000784233
0.000777968
0.000771847
0.000765897
0.000760112
0.000754501
0.000749069
0.000743826
0.000738777
0.00073393
0.000729288
0.000724858
0.000720635
0.000716621
0.000712797
0.000709164
0.000705699
0.000702391
0.000699182
0.000696018
0.000692851
0.000689664
0.000686425
0.000683089
0.000679602
0.000675909
0.00067195
0.000667666
0.000662999
0.000657891
0.000652289
0.000646142
0.000639467
0.00063202
0.000623909
0.000615081
0.00060551
0.000595201
0.000584202
0.000572601
0.00056053
0.000548155
0.000535674
0.000523231
0.000510762
0.000498046
0.000485539
0.000474461
0.000465706
0.000459846
0.000456754
0.000455544
0.00045501
0.000453946
0.000449566
0.000436332
0.000406715
0.000354102
0.000281168
0.000222112
0.000188423
0.000170626
0.000164542
0.000164386
0.000170033
0.000185543
0.000213056
0.000267035
0.0195586
0.0381616
0.0581252
0.073676
0.0821151
0.0844505
0.0829719
0.0792736
0.0743273
0.0689296
0.0636347
0.0588249
0.0545358
0.0507439
0.0473926
0.0444226
0.0417714
0.0393942
0.0372547
0.0353136
0.0335437
0.0319235
0.0304356
0.0290651
0.0277997
0.0266289
0.025543
0.0245337
0.0235939
0.0227165
0.0218967
0.0211282
0.0204075
0.0197299
0.0190918
0.0184901
0.0179223
0.0173854
0.0168775
0.0163959
0.0159393
0.0155054
0.015093
0.0147001
0.0143259
0.0139687
0.0136279
0.0133022
0.012991
0.0126936
0.0124091
0.0121374
0.0118775
0.0116295
0.0113925
0.0111665
0.0109508
0.0107455
0.0105499
0.0103643
0.0101883
0.010022
0.0098652
0.00971813
0.00958081
0.00945332
0.00933567
0.00922847
0.00913128
0.0090448
0.00896849
0.00890421
0.00884939
0.00880698
0.00877677
0.00875623
0.00875047
0.00875632
0.00877262
0.00880149
0.00884341
0.00889807
0.00896526
0.00904493
0.00913683
0.00924073
0.00935627
0.00948293
0.00962013
0.00976724
0.00992355
0.0100882
0.0102605
0.0104392
0.0106236
0.0108126
0.0110052
0.0112003
0.0113968
0.0115939
0.0117902
0.0119848
0.0121768
0.0123653
0.0125492
0.012728
0.0129008
0.0130669
0.0132257
0.0133765
0.0135188
0.0136521
0.013776
0.01389
0.0139938
0.0140872
0.0141699
0.0142417
0.0143025
0.0143521
0.0143908
0.0144183
0.0144342
0.0144391
0.0144337
0.0144191
0.0143944
0.0143597
0.0143152
0.0142613
0.0141983
0.0141265
0.0140462
0.013958
0.0138622
0.0137591
0.0136492
0.0135329
0.0134106
0.0132826
0.0131495
0.0130117
0.0128694
0.0127231
0.0125732
0.01242
0.0122639
0.0121052
0.0119443
0.0117815
0.011617
0.0114513
0.0112845
0.0111169
0.0109488
0.0107804
0.0106119
0.0104436
0.0102757
0.0101083
0.00994176
0.0097761
0.00961151
0.00944813
0.00928609
0.0091255
0.00896649
0.00880914
0.00865354
0.00849979
0.00834794
0.00819807
0.00805023
0.00790447
0.00776083
0.00761935
0.00748007
0.00734299
0.00720816
0.00707557
0.00694524
0.00681718
0.00669138
0.00656785
0.00644658
0.00632756
0.00621078
0.00609623
0.00598389
0.00587374
0.00576576
0.00565993
0.00555622
0.00545461
0.00535507
0.00525757
0.00516209
0.00506859
0.00497705
0.00488743
0.00479969
0.00471382
0.00462977
0.00454751
0.00446701
0.00438823
0.00431115
0.00423573
0.00416194
0.00408974
0.0040191
0.00394999
0.00388238
0.00381623
0.00375151
0.0036882
0.00362626
0.00356566
0.00350637
0.00344836
0.00339161
0.00333608
0.00328175
0.00322859
0.00317657
0.00312566
0.00307585
0.0030271
0.00297939
0.0029327
0.002887
0.00284227
0.00279849
0.00275563
0.00271367
0.00267259
0.00263237
0.00259299
0.00255443
0.00251667
0.0024797
0.00244348
0.00240801
0.00237327
0.00233924
0.0023059
0.00227324
0.00224124
0.00220989
0.00217916
0.00214906
0.00211955
0.00209063
0.00206229
0.00203451
0.00200727
0.00198057
0.00195439
0.00192872
0.00190355
0.00187887
0.00185466
0.00183092
0.00180763
0.00178479
0.00176237
0.00174039
0.00171881
0.00169764
0.00167687
0.00165648
0.00163646
0.00161682
0.00159753
0.0015786
0.00156001
0.00154175
0.00152383
0.00150622
0.00148892
0.00147193
0.00145524
0.00143884
0.00142273
0.00140689
0.00139132
0.00137602
0.00136098
0.00134619
0.00133165
0.00131735
0.00130329
0.00128945
0.00127584
0.00126245
0.00124928
0.00123631
0.00122355
0.00121099
0.00119863
0.00118645
0.00117445
0.00116265
0.00115102
0.00113956
0.00112827
0.00111715
0.00110619
0.00109539
0.00108474
0.00107425
0.0010639
0.0010537
0.00104364
0.00103372
0.00102394
0.0010143
0.00100478
0.000995405
0.000986156
0.000977039
0.000968051
0.000959191
0.000950466
0.000941867
0.000933407
0.000925075
0.00091689
0.000908835
0.000900933
0.000893177
0.000885572
0.000878142
0.00087085
0.000863749
0.000856837
0.000850113
0.000843588
0.00083727
0.000831168
0.000825288
0.00081964
0.000814225
0.000809051
0.000804112
0.000799409
0.000794922
0.000790647
0.000786559
0.000782635
0.000778815
0.000775034
0.000771249
0.000767434
0.000763549
0.000759541
0.000755349
0.000750907
0.000746149
0.000741008
0.000735418
0.000729316
0.000722642
0.00071534
0.000707428
0.000698627
0.000689069
0.000678686
0.000667447
0.000655349
0.000642431
0.000628766
0.000614471
0.000599689
0.000584595
0.000569323
0.000553908
0.000538176
0.000522744
0.000508939
0.000497797
0.000489771
0.00048463
0.000481178
0.000478095
0.000474008
0.000465691
0.000447546
0.000412738
0.000355548
0.000278039
0.000213727
0.00017714
0.000159451
0.000154569
0.000155716
0.000164238
0.000184321
0.000217373
0.000280288
0.0187103
0.0389627
0.0625375
0.0785114
0.0858064
0.0866268
0.0840131
0.0792444
0.0733874
0.067443
0.0620956
0.0574272
0.0533765
0.0498603
0.0467844
0.0440711
0.0416464
0.0394596
0.0374726
0.0356596
0.033998
0.0324689
0.0310565
0.029748
0.0285328
0.0274018
0.0263469
0.025361
0.024438
0.0235719
0.0227587
0.0219929
0.0212711
0.0205905
0.0199471
0.019338
0.0187608
0.0182132
0.0176932
0.017199
0.0167289
0.0162814
0.0158551
0.0154487
0.015061
0.014691
0.0143376
0.0140003
0.0136781
0.0133708
0.0130773
0.0127979
0.0125315
0.0122784
0.0120377
0.0118098
0.0115938
0.0113902
0.0111982
0.0110185
0.0108502
0.0106939
0.0105495
0.0104172
0.010297
0.0101888
0.0100934
0.0100108
0.00994039
0.00988288
0.00983877
0.00980827
0.00978815
0.00978591
0.00979417
0.00981443
0.00984836
0.00989606
0.00995695
0.0100308
0.0101174
0.0102166
0.0103279
0.010451
0.0105853
0.0107302
0.0108851
0.0110495
0.0112224
0.0114031
0.0115908
0.0117846
0.0119837
0.0121871
0.0123938
0.0126031
0.0128137
0.0130249
0.0132355
0.0134446
0.0136512
0.0138544
0.0140535
0.0142476
0.0144358
0.0146177
0.0147923
0.0149592
0.0151176
0.0152671
0.015407
0.015537
0.0156567
0.0157657
0.0158637
0.0159503
0.0160255
0.0160891
0.016141
0.0161809
0.0162093
0.0162252
0.0162294
0.0162229
0.0162057
0.0161775
0.0161385
0.016089
0.0160292
0.0159594
0.0158801
0.0157916
0.0156942
0.0155883
0.0154745
0.015353
0.0152244
0.015089
0.0149473
0.0147998
0.0146468
0.0144888
0.0143262
0.0141594
0.0139888
0.0138149
0.0136379
0.0134583
0.0132765
0.0130927
0.0129073
0.0127206
0.0125328
0.0123444
0.0121555
0.0119664
0.0117774
0.0115888
0.0114006
0.0112133
0.0110268
0.0108415
0.0106574
0.0104748
0.0102938
0.0101144
0.00993684
0.00976121
0.00958759
0.00941606
0.00924672
0.00907962
0.00891483
0.00875239
0.00859236
0.00843477
0.00827965
0.00812703
0.00797693
0.00782936
0.00768433
0.00754185
0.00740192
0.00726452
0.00712967
0.00699733
0.00686751
0.00674018
0.00661533
0.00649292
0.00637295
0.00625537
0.00614017
0.00602731
0.00591677
0.00580851
0.00570249
0.00559869
0.00549707
0.0053976
0.00530022
0.00520492
0.00511166
0.00502039
0.00493108
0.00484369
0.00475819
0.00467454
0.0045927
0.00451263
0.0044343
0.00435767
0.0042827
0.00420937
0.00413763
0.00406744
0.00399879
0.00393162
0.00386591
0.00380163
0.00373874
0.00367721
0.00361701
0.00355811
0.00350048
0.00344408
0.0033889
0.0033349
0.00328206
0.00323035
0.00317973
0.00313019
0.00308171
0.00303424
0.00298778
0.00294229
0.00289776
0.00285416
0.00281147
0.00276967
0.00272873
0.00268864
0.00264938
0.00261092
0.00257325
0.00253635
0.0025002
0.00246478
0.00243008
0.00239608
0.00236276
0.00233011
0.00229811
0.00226674
0.002236
0.00220586
0.00217631
0.00214734
0.00211894
0.00209109
0.00206378
0.002037
0.00201073
0.00198496
0.00195968
0.00193488
0.00191056
0.00188669
0.00186326
0.00184028
0.00181772
0.00179557
0.00177384
0.0017525
0.00173155
0.00171098
0.00169078
0.00167095
0.00165147
0.00163233
0.00161353
0.00159506
0.00157691
0.00155908
0.00154155
0.00152433
0.00150739
0.00149075
0.00147438
0.00145829
0.00144246
0.00142689
0.00141158
0.00139652
0.0013817
0.00136711
0.00135276
0.00133863
0.00132472
0.00131104
0.00129755
0.00128428
0.0012712
0.00125833
0.00124564
0.00123314
0.00122082
0.00120868
0.00119672
0.00118493
0.0011733
0.00116184
0.00115054
0.0011394
0.00112841
0.00111757
0.00110689
0.00109635
0.00108596
0.00107571
0.00106561
0.00105565
0.00104583
0.00103616
0.00102663
0.00101725
0.00100802
0.000998942
0.000990016
0.000981255
0.000972658
0.000964226
0.000955992
0.000947901
0.000940031
0.000932363
0.000924904
0.000917663
0.00091065
0.000903874
0.000897341
0.000891061
0.000885037
0.000879272
0.000873762
0.000868504
0.00086348
0.000858678
0.000854073
0.000849633
0.000845293
0.000840986
0.000836669
0.000832312
0.000827867
0.000823276
0.00081847
0.000813379
0.000807932
0.000802058
0.000795685
0.000788749
0.000781185
0.000772937
0.000764022
0.000754136
0.000743433
0.000731837
0.00071932
0.000705885
0.000691565
0.000676421
0.000660548
0.000644066
0.000627124
0.000609844
0.000592295
0.000574371
0.000556691
0.000540624
0.00052721
0.000516832
0.000509187
0.000502957
0.000496864
0.00048943
0.000477301
0.000455143
0.000416837
0.000357475
0.000278814
0.000213139
0.000176016
0.000159366
0.000155608
0.000157874
0.000168641
0.000191844
0.00022848
0.000296925
0.0191413
0.0424494
0.0669523
0.079218
0.082108
0.0798012
0.07493
0.0688359
0.062619
0.057257
0.0528326
0.0492084
0.0462023
0.0436661
0.0414743
0.0395409
0.0377868
0.0361834
0.0347034
0.0333281
0.0320437
0.0308386
0.0297046
0.0286353
0.027626
0.0266721
0.0257695
0.0249148
0.024105
0.0233367
0.0226078
0.0219149
0.0212559
0.0206291
0.0200316
0.0194621
0.0189191
0.0184011
0.017907
0.0174354
0.0169852
0.0165555
0.0161452
0.0157536
0.0153797
0.0150232
0.0146829
0.0143588
0.0140499
0.0137563
0.0134771
0.0132129
0.0129626
0.012727
0.0125049
0.0122973
0.0121033
0.0119238
0.0117575
0.0116057
0.0114668
0.0113425
0.0112321
0.0111356
0.0110528
0.010984
0.0109304
0.0108907
0.0108641
0.0108526
0.0108567
0.0108721
0.0109006
0.0109436
0.0110001
0.0110696
0.0111518
0.0112466
0.0113536
0.0114724
0.0116026
0.0117435
0.0118947
0.0120554
0.0122251
0.0124031
0.0125886
0.0127809
0.0129793
0.0131829
0.0133909
0.0136025
0.0138169
0.0140332
0.0142506
0.0144683
0.0146852
0.0149007
0.0151137
0.0153236
0.0155294
0.0157304
0.0159259
0.0161152
0.0162975
0.0164724
0.0166391
0.0167972
0.0169461
0.0170854
0.0172146
0.0173331
0.017441
0.0175374
0.0176226
0.0176959
0.0177574
0.0178069
0.0178442
0.0178692
0.0178826
0.0178826
0.0178725
0.0178506
0.017817
0.0177722
0.0177164
0.0176497
0.0175726
0.0174853
0.0173883
0.0172817
0.0171662
0.0170421
0.0169097
0.0167696
0.0166222
0.0164679
0.0163072
0.0161406
0.0159683
0.015791
0.0156091
0.0154229
0.015233
0.0150396
0.0148433
0.0146443
0.0144431
0.01424
0.0140354
0.0138296
0.0136229
0.0134155
0.0132079
0.0130002
0.0127928
0.0125858
0.0123796
0.0121743
0.0119702
0.0117673
0.011566
0.0113663
0.0111684
0.0109724
0.0107784
0.0105867
0.0103971
0.01021
0.0100252
0.00984298
0.00966329
0.00948622
0.00931181
0.0091401
0.00897112
0.00880489
0.00864144
0.00848077
0.0083229
0.00816783
0.00801556
0.00786608
0.00771937
0.00757544
0.00743425
0.0072958
0.00716005
0.00702699
0.00689658
0.0067688
0.00664361
0.00652098
0.00640088
0.00628328
0.00616812
0.00605538
0.00594502
0.005837
0.00573127
0.0056278
0.00552655
0.00542748
0.00533054
0.0052357
0.00514291
0.00505213
0.00496332
0.00487645
0.00479146
0.00470833
0.00462701
0.00454746
0.00446965
0.00439353
0.00431907
0.00424623
0.00417498
0.00410528
0.00403709
0.00397038
0.00390511
0.00384126
0.00377879
0.00371766
0.00365785
0.00359932
0.00354205
0.003486
0.00343116
0.00337747
0.00332493
0.0032735
0.00322316
0.00317387
0.00312563
0.00307839
0.00303214
0.00298686
0.00294251
0.00289909
0.00285656
0.0028149
0.0027741
0.00273414
0.00269499
0.00265663
0.00261905
0.00258223
0.00254615
0.00251079
0.00247614
0.00244217
0.00240889
0.00237625
0.00234426
0.0023129
0.00228215
0.002252
0.00222243
0.00219343
0.00216499
0.0021371
0.00210973
0.00208289
0.00205656
0.00203072
0.00200536
0.00198048
0.00195606
0.00193209
0.00190856
0.00188546
0.00186279
0.00184052
0.00181866
0.00179719
0.0017761
0.00175538
0.00173503
0.00171504
0.0016954
0.00167609
0.00165712
0.00163848
0.00162015
0.00160213
0.00158441
0.00156699
0.00154986
0.00153301
0.00151643
0.00150013
0.00148408
0.00146829
0.00145276
0.00143746
0.00142241
0.00140759
0.00139299
0.00137862
0.00136447
0.00135052
0.00133679
0.00132325
0.00130992
0.00129678
0.00128383
0.00127106
0.00125847
0.00124606
0.00123383
0.00122176
0.00120986
0.00119813
0.00118656
0.00117515
0.00116389
0.0011528
0.00114186
0.00113108
0.00112045
0.00110997
0.00109966
0.0010895
0.00107951
0.00106968
0.00106002
0.00105053
0.00104123
0.0010321
0.00102318
0.00101442
0.0010059
0.000997595
0.000989515
0.00098167
0.00097407
0.000966722
0.000959636
0.000952818
0.000946272
0.00094
0.000933998
0.000928258
0.000922763
0.000917497
0.000912431
0.000907526
0.000902713
0.000897925
0.00089312
0.000888264
0.000883304
0.000878173
0.000872801
0.000867113
0.000861034
0.000854491
0.000847411
0.000839727
0.000831373
0.000822293
0.0008125
0.000801675
0.000789987
0.000777362
0.000763785
0.000749265
0.000733834
0.000717536
0.00070045
0.000682675
0.000664337
0.000645551
0.000626401
0.000606844
0.000587426
0.0005695
0.000554041
0.00054138
0.000531159
0.000522067
0.000512946
0.000502248
0.000486679
0.000461288
0.000420609
0.000360442
0.000282283
0.000217205
0.000180647
0.000165058
0.000162136
0.000165217
0.000177509
0.000202723
0.000241739
0.000313847
0.0303204
0.0536628
0.0680782
0.0690271
0.0659033
0.0604361
0.0541995
0.0483853
0.0439222
0.0405827
0.0381221
0.0363002
0.0349002
0.0337784
0.0328213
0.0319573
0.031162
0.030399
0.0296515
0.0289123
0.0281801
0.0274549
0.0267389
0.0260347
0.0253453
0.0246709
0.0240136
0.0233746
0.0227554
0.0221554
0.0215755
0.0210149
0.0204733
0.0199515
0.0194477
0.0189622
0.0184947
0.018045
0.0176128
0.017198
0.0168003
0.0164194
0.016055
0.0157069
0.0153749
0.0150588
0.0147581
0.0144733
0.0142036
0.0139496
0.0137103
0.0134868
0.0132777
0.0130848
0.012906
0.0127435
0.0125962
0.0124645
0.0123471
0.0122459
0.0121579
0.0120873
0.0120308
0.0119888
0.0119609
0.0119485
0.0119524
0.0119679
0.011997
0.0120402
0.0120974
0.0121676
0.0122501
0.0123448
0.0124514
0.0125693
0.0126981
0.0128373
0.0129864
0.0131448
0.0133121
0.0134875
0.0136704
0.0138602
0.0140561
0.0142575
0.0144636
0.0146738
0.0148874
0.0151035
0.0153216
0.0155407
0.0157603
0.0159795
0.0161976
0.0164139
0.0166275
0.0168379
0.0170443
0.017246
0.0174423
0.0176326
0.0178163
0.0179927
0.0181613
0.0183218
0.0184733
0.0186155
0.018748
0.0188705
0.0189824
0.0190835
0.0191735
0.0192518
0.0193188
0.0193737
0.0194167
0.0194475
0.019466
0.0194722
0.0194668
0.0194494
0.0194203
0.0193794
0.0193269
0.0192631
0.0191882
0.0191024
0.0190062
0.0188998
0.0187837
0.018658
0.0185234
0.0183801
0.0182287
0.0180695
0.017903
0.0177297
0.01755
0.0173643
0.0171731
0.0169769
0.0167761
0.0165711
0.0163625
0.0161505
0.0159356
0.0157182
0.0154986
0.0152773
0.0150546
0.0148309
0.0146063
0.0143813
0.0141562
0.0139313
0.0137068
0.0134829
0.01326
0.0130382
0.0128178
0.0125989
0.0123816
0.0121663
0.011953
0.0117418
0.0115329
0.0113264
0.0111224
0.010921
0.0107223
0.0105263
0.0103331
0.0101428
0.00995532
0.00977083
0.00958931
0.00941078
0.00923527
0.00906279
0.00889333
0.00872691
0.00856351
0.00840314
0.00824577
0.00809139
0.00793999
0.00779153
0.00764599
0.00750335
0.00736357
0.00722662
0.00709247
0.00696108
0.0068324
0.00670641
0.00658306
0.00646231
0.00634412
0.00622844
0.00611523
0.00600445
0.00589605
0.00578999
0.00568622
0.0055847
0.00548539
0.00538824
0.00529321
0.00520024
0.00510931
0.00502037
0.00493337
0.00484827
0.00476502
0.0046836
0.00460396
0.00452606
0.00444985
0.00437531
0.00430239
0.00423106
0.00416127
0.004093
0.00402621
0.00396085
0.00389691
0.00383435
0.00377312
0.00371321
0.00365459
0.00359721
0.00354105
0.00348608
0.00343228
0.00337962
0.00332806
0.00327758
0.00322816
0.00317978
0.0031324
0.003086
0.00304056
0.00299606
0.00295247
0.00290977
0.00286795
0.00282698
0.00278683
0.0027475
0.00270896
0.00267119
0.00263418
0.00259791
0.00256235
0.0025275
0.00249334
0.00245984
0.002427
0.0023948
0.00236323
0.00233226
0.00230189
0.00227211
0.00224289
0.00221422
0.0021861
0.00215851
0.00213144
0.00210487
0.0020788
0.0020532
0.00202808
0.00200342
0.00197921
0.00195544
0.00193209
0.00190917
0.00188665
0.00186454
0.00184281
0.00182147
0.00180049
0.00177988
0.00175963
0.00173972
0.00172015
0.00170092
0.001682
0.0016634
0.00164511
0.00162712
0.00160942
0.00159201
0.00157488
0.00155803
0.00154144