/*--------------------------------*- C++ -*----------------------------------*\
| =========                 |                                                 |
| \\      /  F ield         | OpenFOAM: The Open Source CFD Toolbox           |
|  \\    /   O peration     | Version:  v2012                                 |
|   \\  /    A nd           | Website:  www.openfoam.com                      |
|    \\/     M anipulation  |                                                 |
\*---------------------------------------------------------------------------*/
FoamFile
{
    version     2.0;
    format      ascii;
    class       volScalarField;
    location    "80";
    object      p;
}
// * * * * * * * * * * * * * * * * * * * * * * * * * * * * * * * * * * * * * //

dimensions      [0 2 -2 0 0 0 0];


internalField   nonuniform List<scalar> 
25248
(
-0.345668
-0.375604
-0.378885
-0.35349
-0.309431
-0.257591
-0.207528
-0.164878
-0.132273
-0.109495
-0.0950683
-0.0872897
-0.0843546
-0.0847905
-0.0874859
-0.0916165
-0.096577
-0.101929
-0.107361
-0.112661
-0.117689
-0.12236
-0.126634
-0.130494
-0.133947
-0.137011
-0.139713
-0.142081
-0.144148
-0.145946
-0.147504
-0.148849
-0.150008
-0.151003
-0.151852
-0.152574
-0.153182
-0.15369
-0.154107
-0.154442
-0.154702
-0.154894
-0.155021
-0.155087
-0.155094
-0.155045
-0.154941
-0.154783
-0.154572
-0.154307
-0.15399
-0.153619
-0.153199
-0.152725
-0.152189
-0.1516
-0.150957
-0.150258
-0.149504
-0.148694
-0.147828
-0.146906
-0.145929
-0.144897
-0.143809
-0.142668
-0.141474
-0.140227
-0.138929
-0.137582
-0.136185
-0.134741
-0.133251
-0.131717
-0.13014
-0.128523
-0.126868
-0.125176
-0.12345
-0.121691
-0.119903
-0.118086
-0.116244
-0.114378
-0.112492
-0.110586
-0.108664
-0.106728
-0.10478
-0.102823
-0.100858
-0.0988874
-0.0969142
-0.09494
-0.0929669
-0.0909969
-0.0890322
-0.0870749
-0.0851268
-0.0831896
-0.0812649
-0.0793543
-0.0774594
-0.0755816
-0.0737221
-0.071882
-0.0700624
-0.0682643
-0.0664885
-0.064736
-0.0630077
-0.0613038
-0.0596251
-0.057972
-0.0563452
-0.0547451
-0.053172
-0.0516263
-0.0501083
-0.0486184
-0.0471566
-0.0457233
-0.0443185
-0.0429424
-0.0415949
-0.0402764
-0.0389867
-0.0377258
-0.0364937
-0.0352901
-0.0341151
-0.0329684
-0.0318501
-0.0307598
-0.0296972
-0.028662
-0.0276542
-0.0266731
-0.0257188
-0.024791
-0.0238892
-0.0230129
-0.0221619
-0.0213357
-0.0205339
-0.0197563
-0.0190022
-0.0182711
-0.0175627
-0.0168765
-0.0162122
-0.0155691
-0.0149467
-0.0143447
-0.0137627
-0.0132001
-0.0126564
-0.0121311
-0.0116238
-0.011134
-0.0106612
-0.010205
-0.00976487
-0.00934037
-0.00893105
-0.00853646
-0.00815615
-0.00778971
-0.0074367
-0.0070967
-0.0067693
-0.00645412
-0.00615076
-0.00585883
-0.00557796
-0.00530779
-0.00504794
-0.00479807
-0.00455783
-0.00432689
-0.00410493
-0.00389163
-0.00368667
-0.00348978
-0.00330064
-0.00311899
-0.00294455
-0.00277706
-0.00261627
-0.00246193
-0.00231379
-0.00217162
-0.00203519
-0.00190431
-0.00177878
-0.00165837
-0.00154289
-0.00143216
-0.00132599
-0.00122421
-0.00112666
-0.00103317
-0.000943584
-0.000857753
-0.00077553
-0.000696776
-0.000621358
-0.000549144
-0.00048001
-0.000413836
-0.000350507
-0.000289911
-0.000231941
-0.000176496
-0.00012348
-7.27985e-05
-2.43592e-05
2.19265e-05
6.61429e-05
0.000108371
0.000148688
0.000187168
0.000223884
0.000258905
0.000292296
0.00032412
0.00035444
0.000383315
0.0004108
0.000436949
0.000461814
0.000485446
0.000507891
0.000529197
0.000549407
0.000568564
0.000586707
0.000603878
0.000620112
0.000635446
0.000649916
0.000663554
0.000676392
0.000688462
0.000699792
0.000710411
0.000720347
0.000729625
0.000738271
0.000746308
0.00075376
0.00076065
0.000766997
0.000772824
0.000778151
0.000782995
0.000787374
0.000791308
0.000794811
0.000797901
0.000800594
0.000802903
0.000804844
0.00080643
0.000807674
0.000808589
0.000809187
0.000809481
0.000809481
0.000809199
0.000808644
0.000807828
0.00080676
0.000805449
0.000803905
0.000802136
0.00080015
0.000797956
0.000795562
0.000792974
0.0007902
0.000787247
0.000784122
0.00078083
0.000777379
0.000773775
0.000770022
0.000766127
0.000762095
0.000757931
0.00075364
0.000749227
0.000744697
0.000740054
0.000735302
0.000730446
0.00072549
0.000720438
0.000715292
0.000710058
0.000704738
0.000699336
0.000693855
0.000688299
0.000682671
0.000676973
0.00067121
0.000665382
0.000659494
0.000653548
0.000647546
0.000641491
0.000635385
0.00062923
0.000623028
0.000616782
0.000610492
0.000604162
0.000597792
0.000591383
0.000584936
0.000578454
0.000571937
0.000565385
0.000558799
0.000552179
0.000545525
0.000538838
0.000532118
0.000525362
0.000518572
0.000511744
0.00050488
0.000497976
0.000491033
0.000484049
0.000477024
0.000469955
0.000462845
0.000455688
0.00044849
0.000441248
0.000433968
0.000426648
0.000419298
0.000411916
0.000404518
0.000397099
0.000389679
0.000382254
0.000374852
0.000367463
0.000360109
0.000352772
0.000345485
0.000338231
0.000331052
0.000323917
0.000316875
0.000309883
0.000303004
0.000296181
0.000289492
0.000282862
0.00027639
0.000269983
0.000263742
0.000257529
0.00025147
0.000245377
0.000239379
0.000233224
0.000227066
0.000220612
0.000214074
0.00020719
0.000200247
0.000192857
0.000185106
0.000176466
0.000167388
0.000157845
0.000148698
0.000140107
0.000133029
0.000127783
0.000126008
0.00012857
0.000135808
0.000143591
0.00014364
0.000127843
0.000101997
7.49392e-05
5.19121e-05
3.28697e-05
1.62731e-05
2.83985e-07
-1.33159e-05
-1.77153e-05
-0.348858
-0.377343
-0.381489
-0.357996
-0.31487
-0.263648
-0.213921
-0.171199
-0.138331
-0.115066
-0.100101
-0.091764
-0.0882956
-0.088247
-0.0905121
-0.094264
-0.0988923
-0.103953
-0.10913
-0.114206
-0.119039
-0.123541
-0.127667
-0.131399
-0.134741
-0.137709
-0.140327
-0.142623
-0.144627
-0.14637
-0.147881
-0.149185
-0.150309
-0.151272
-0.152094
-0.152792
-0.153379
-0.153868
-0.154268
-0.154589
-0.154836
-0.155016
-0.155132
-0.155188
-0.155187
-0.15513
-0.155019
-0.154855
-0.154638
-0.154368
-0.154045
-0.153672
-0.153243
-0.15276
-0.152219
-0.151626
-0.15098
-0.150278
-0.149521
-0.148708
-0.147839
-0.146915
-0.145935
-0.1449
-0.143811
-0.142667
-0.141471
-0.140222
-0.138922
-0.137571
-0.136172
-0.134726
-0.133233
-0.131697
-0.130118
-0.128499
-0.126841
-0.125147
-0.123418
-0.121656
-0.119864
-0.118045
-0.116199
-0.114331
-0.11244
-0.110531
-0.108606
-0.106666
-0.104714
-0.102752
-0.100783
-0.0988081
-0.0968303
-0.0948515
-0.0928738
-0.0908993
-0.08893
-0.0869685
-0.085016
-0.0830745
-0.0811455
-0.0792308
-0.0773318
-0.0754499
-0.0735864
-0.0717424
-0.0699189
-0.068117
-0.0663375
-0.0645814
-0.0628496
-0.0611427
-0.059461
-0.0578052
-0.0561759
-0.0545735
-0.0529985
-0.051451
-0.0499316
-0.0484405
-0.0469778
-0.0455438
-0.0441387
-0.0427625
-0.0414154
-0.0400972
-0.0388081
-0.037548
-0.0363169
-0.0351145
-0.0339409
-0.0327958
-0.0316786
-0.03059
-0.0295294
-0.0284966
-0.0274912
-0.0265134
-0.0255617
-0.0246364
-0.0237372
-0.0228636
-0.0220154
-0.021192
-0.0203931
-0.0196178
-0.0188666
-0.0181385
-0.0174331
-0.01675
-0.0160886
-0.0154486
-0.0148296
-0.0142306
-0.0136514
-0.0130917
-0.0125508
-0.0120284
-0.0115238
-0.0110367
-0.0105667
-0.0101131
-0.00967554
-0.0092536
-0.00884678
-0.00845464
-0.00807673
-0.00771265
-0.00736194
-0.0070242
-0.006699
-0.00638596
-0.00608468
-0.00579479
-0.0055159
-0.00524766
-0.00498969
-0.00474164
-0.00450318
-0.00427396
-0.00405368
-0.003842
-0.00363862
-0.00344325
-0.0032556
-0.00307539
-0.00290235
-0.00273621
-0.00257673
-0.00242366
-0.00227675
-0.00213578
-0.0020005
-0.00187073
-0.00174627
-0.0016269
-0.00151243
-0.00140268
-0.00129745
-0.00119659
-0.00109992
-0.00100729
-0.000918526
-0.000833493
-0.000752043
-0.000674036
-0.000599338
-0.000527822
-0.000459362
-0.00039384
-0.00033114
-0.000271152
-0.00021377
-0.000158893
-0.000106425
-5.62752e-05
-8.34951e-06
3.74398e-05
8.11763e-05
0.00012294
0.000162808
0.000200855
0.000237152
0.000271767
0.000304766
0.000336211
0.000366164
0.000394684
0.000421826
0.000447643
0.000472188
0.000495509
0.000517654
0.000538669
0.000558598
0.000577482
0.000595362
0.000612277
0.000628265
0.000643361
0.000657599
0.000671013
0.000683634
0.000695494
0.000706621
0.000717044
0.000726789
0.000735882
0.000744349
0.000752213
0.000759498
0.000766225
0.000772415
0.000778089
0.000783268
0.000787968
0.000792209
0.000796008
0.000799381
0.000802345
0.000804914
0.000807105
0.00080893
0.000810404
0.00081154
0.00081235
0.000812847
0.000813041
0.000812945
0.00081257
0.000811925
0.000811021
0.000809868
0.000808475
0.00080685
0.000805003
0.000802943
0.000800675
0.000798209
0.000795553
0.000792712
0.000789694
0.000786505
0.000783152
0.000779641
0.000775979
0.00077217
0.00076822
0.000764135
0.000759919
0.000755578
0.000751116
0.000746538
0.000741849
0.000737053
0.000732153
0.000727154
0.00072206
0.000716875
0.000711602
0.000706244
0.000700805
0.000695288
0.000689697
0.000684034
0.000678304
0.000672508
0.000666649
0.000660731
0.000654755
0.000648724
0.000642641
0.000636507
0.000630326
0.000624098
0.000617827
0.000611513
0.000605159
0.000598766
0.000592334
0.000585867
0.000579364
0.000572826
0.000566254
0.000559649
0.000553011
0.00054634
0.000539637
0.0005329
0.000526129
0.000519324
0.000512483
0.000505606
0.000498689
0.000491734
0.000484739
0.000477705
0.000470627
0.000463507
0.000456343
0.000449138
0.000441889
0.000434603
0.000427276
0.00041992
0.000412532
0.000405127
0.0003977
0.000390272
0.000382837
0.000375422
0.000368015
0.000360642
0.000353284
0.000345976
0.000338699
0.000331494
0.00032433
0.000317256
0.000310231
0.000303316
0.000296454
0.000289724
0.000283051
0.000276534
0.000270074
0.000263776
0.000257498
0.000251373
0.000245213
0.000239156
0.00023295
0.00022676
0.000220297
0.000213781
0.000206918
0.000200004
0.000192638
0.000184968
0.000176466
0.000167587
0.000158264
0.000149341
0.000140889
0.000133835
0.000128361
0.000125997
0.000127266
0.000132718
0.000138699
0.000138791
0.000124498
0.000100506
7.50737e-05
5.32316e-05
3.48697e-05
1.89694e-05
3.63553e-06
-9.08847e-06
-1.47814e-05
-0.35335
-0.380105
-0.384117
-0.361315
-0.318996
-0.268364
-0.218963
-0.176307
-0.143314
-0.119762
-0.10443
-0.0956743
-0.0917808
-0.0913335
-0.0932369
-0.0966655
-0.101007
-0.105813
-0.110765
-0.115642
-0.120299
-0.124647
-0.128636
-0.13225
-0.135488
-0.138366
-0.140905
-0.143132
-0.145078
-0.146769
-0.148235
-0.149501
-0.15059
-0.151524
-0.15232
-0.152996
-0.153563
-0.154035
-0.15442
-0.154727
-0.154962
-0.155131
-0.155238
-0.155285
-0.155276
-0.155212
-0.155095
-0.154924
-0.154701
-0.154426
-0.154098
-0.153719
-0.153284
-0.152797
-0.152255
-0.151658
-0.151009
-0.150304
-0.149543
-0.148726
-0.147854
-0.146926
-0.145943
-0.144905
-0.143812
-0.142665
-0.141465
-0.140212
-0.138908
-0.137554
-0.136151
-0.1347
-0.133204
-0.131663
-0.130079
-0.128455
-0.126793
-0.125093
-0.123358
-0.121591
-0.119794
-0.117968
-0.116117
-0.114241
-0.112344
-0.110428
-0.108495
-0.106548
-0.104589
-0.10262
-0.100643
-0.0986609
-0.0966759
-0.0946899
-0.0927051
-0.0907236
-0.0887475
-0.0867793
-0.0848205
-0.0828728
-0.0809379
-0.0790174
-0.0771129
-0.0752258
-0.0733573
-0.0715086
-0.0696806
-0.0678742
-0.0660906
-0.0643301
-0.0625937
-0.0608833
-0.0591987
-0.0575403
-0.0559087
-0.0543044
-0.0527278
-0.0511792
-0.049659
-0.0481674
-0.0467046
-0.0452708
-0.0438663
-0.0424912
-0.0411457
-0.0398292
-0.038542
-0.0372841
-0.0360554
-0.0348557
-0.0336849
-0.0325429
-0.0314286
-0.0303429
-0.0292858
-0.0282566
-0.0272548
-0.0262813
-0.0253337
-0.0244125
-0.0235174
-0.0226481
-0.021804
-0.0209849
-0.0201904
-0.019419
-0.018672
-0.0179483
-0.0172472
-0.0165684
-0.0159114
-0.0152756
-0.0146612
-0.0140665
-0.0134915
-0.0129358
-0.012399
-0.0118806
-0.01138
-0.0108967
-0.0104305
-0.00998061
-0.00954673
-0.00912838
-0.00872508
-0.00833638
-0.00796184
-0.00760104
-0.00725359
-0.00691903
-0.00659695
-0.00628695
-0.00598863
-0.00570163
-0.00542555
-0.00516004
-0.00490473
-0.00465928
-0.00442333
-0.00419657
-0.00397865
-0.00376928
-0.00356815
-0.00337495
-0.00318941
-0.00301124
-0.00284019
-0.00267597
-0.00251835
-0.00236709
-0.00222193
-0.0020827
-0.00194916
-0.001821
-0.00169807
-0.00158019
-0.00146716
-0.00135879
-0.00125491
-0.00115535
-0.00105995
-0.000968532
-0.000880954
-0.000797065
-0.000716722
-0.000639787
-0.000566127
-0.000495615
-0.000428128
-0.000363548
-0.000301761
-0.000242656
-0.00018613
-0.000132079
-8.04103e-05
-3.10321e-05
1.61462e-05
6.1212e-05
0.000104248
0.000145334
0.000184546
0.000221957
0.000257639
0.000291658
0.00032408
0.000354967
0.000384379
0.000412374
0.000439009
0.000464335
0.000488403
0.000511262
0.000532961
0.000553542
0.000573051
0.000591529
0.000609015
0.000625547
0.000641165
0.000655901
0.000669791
0.000682867
0.000695161
0.000706703
0.000717522
0.000727646
0.000737101
0.000745913
0.000754107
0.000761707
0.000768734
0.000775212
0.000781161
0.0007866
0.00079155
0.000796029
0.000800055
0.000803645
0.000806816
0.000809583
0.000811962
0.000813967
0.000815612
0.000816911
0.000817877
0.000818521
0.000818857
0.000818896
0.000818648
0.000818125
0.000817337
0.000816294
0.000815006
0.000813481
0.000811729
0.000809758
0.000807576
0.000805191
0.000802611
0.000799843
0.000796894
0.00079377
0.00079048
0.000787027
0.000783419
0.000779662
0.000775762
0.000771722
0.00076755
0.00076325
0.000758826
0.000754284
0.000749628
0.000744863
0.000739993
0.000735021
0.000729952
0.000724789
0.000719537
0.000714199
0.000708778
0.000703277
0.0006977
0.000692051
0.000686332
0.000680545
0.000674695
0.000668784
0.000662814
0.000656788
0.000650708
0.000644577
0.000638398
0.000632171
0.0006259
0.000619586
0.00061323
0.000606835
0.000600402
0.000593933
0.000587428
0.000580888
0.000574316
0.00056771
0.000561072
0.000554401
0.0005477
0.000540966
0.0005342
0.000527401
0.000520569
0.000513703
0.000506801
0.000499859
0.000492884
0.000485867
0.000478813
0.000471715
0.000464578
0.000457396
0.000450175
0.00044291
0.000435609
0.000428268
0.000420898
0.000413495
0.000406075
0.000398632
0.000391188
0.000383735
0.000376299
0.000368866
0.000361466
0.000354079
0.000346743
0.000339432
0.000332193
0.000324988
0.000317875
0.000310802
0.00030384
0.000296924
0.000290139
0.000283404
0.000276823
0.000270282
0.000263908
0.000257543
0.000251336
0.000245086
0.000238957
0.000232686
0.000226463
0.00021999
0.000213513
0.000206692
0.000199837
0.000192522
0.000184984
0.000176686
0.000168129
0.000159168
0.000150646
0.000142479
0.000135638
0.0001302
0.000127603
0.000127733
0.000131063
0.000133959
0.0001322
0.000118906
9.71967e-05
7.36768e-05
5.30262e-05
3.5346e-05
2.02596e-05
6.19225e-06
-5.07085e-06
-1.21425e-05
-0.35778
-0.383192
-0.386551
-0.363394
-0.321081
-0.270727
-0.221594
-0.179157
-0.146278
-0.122763
-0.107367
-0.098444
-0.0943349
-0.0936601
-0.0953406
-0.0985587
-0.102704
-0.10733
-0.112117
-0.116845
-0.121366
-0.125592
-0.129472
-0.132987
-0.136139
-0.13894
-0.141411
-0.14358
-0.145473
-0.147119
-0.148546
-0.149778
-0.150838
-0.151746
-0.15252
-0.153176
-0.153726
-0.154183
-0.154555
-0.15485
-0.155076
-0.155235
-0.155334
-0.155374
-0.155359
-0.155289
-0.155166
-0.15499
-0.154762
-0.154483
-0.154151
-0.153767
-0.153329
-0.152838
-0.152293
-0.151693
-0.15104
-0.150331
-0.149567
-0.148747
-0.147871
-0.146939
-0.145952
-0.14491
-0.143812
-0.142661
-0.141456
-0.140198
-0.138889
-0.13753
-0.136122
-0.134665
-0.133163
-0.131616
-0.130027
-0.128396
-0.126726
-0.125019
-0.123278
-0.121503
-0.119698
-0.117864
-0.116004
-0.114121
-0.112215
-0.11029
-0.108349
-0.106393
-0.104425
-0.102447
-0.100462
-0.098472
-0.0964791
-0.0944854
-0.0924932
-0.0905043
-0.0885212
-0.0865443
-0.0845785
-0.0826245
-0.0806836
-0.0787574
-0.0768476
-0.0749553
-0.0730824
-0.07123
-0.0693986
-0.0675892
-0.0658025
-0.0640392
-0.0622997
-0.0605868
-0.0589003
-0.0572404
-0.0556077
-0.0540027
-0.0524258
-0.0508772
-0.0493573
-0.0478665
-0.0464047
-0.0449724
-0.0435695
-0.0421963
-0.040853
-0.0395392
-0.0382549
-0.0370001
-0.0357747
-0.0345785
-0.0334113
-0.0322731
-0.0311636
-0.0300825
-0.0290295
-0.0280045
-0.0270071
-0.026037
-0.0250938
-0.0241771
-0.0232867
-0.022422
-0.0215827
-0.0207683
-0.0199784
-0.0192126
-0.0184704
-0.0177513
-0.0170549
-0.0163807
-0.0157282
-0.0150969
-0.0144863
-0.013896
-0.0133254
-0.0127741
-0.0122415
-0.0117272
-0.0112308
-0.0107516
-0.0102893
-0.00984335
-0.00941329
-0.00899868
-0.00859904
-0.00821392
-0.00784288
-0.00748549
-0.00714137
-0.00681009
-0.0064912
-0.00618432
-0.00588905
-0.005605
-0.00533181
-0.00506911
-0.00481653
-0.00457372
-0.00434036
-0.00411609
-0.00390062
-0.00369361
-0.00349477
-0.0033038
-0.00312042
-0.00294435
-0.00277533
-0.00261308
-0.00245738
-0.00230796
-0.0021646
-0.00202712
-0.00189531
-0.0017688
-0.00164745
-0.0015311
-0.00141955
-0.00131262
-0.00121013
-0.0011119
-0.00101779
-0.00092762
-0.000841252
-0.000758536
-0.000679328
-0.000603494
-0.000530902
-0.000461427
-0.000394947
-0.000331346
-0.000270511
-0.000212335
-0.000156711
-0.000103539
-5.27071e-05
-4.13178e-06
4.22696e-05
8.6583e-05
0.00012889
0.00016927
0.000207798
0.000244547
0.000279587
0.000312985
0.000344805
0.000375108
0.000403954
0.000431401
0.000457504
0.000482315
0.000505884
0.000528259
0.000549488
0.000569615
0.000588682
0.000606731
0.000623802
0.000639932
0.000655159
0.000669516
0.000683038
0.000695758
0.000707705
0.000718911
0.000729404
0.000739211
0.000748359
0.000756872
0.000764777
0.000772095
0.000778849
0.000785061
0.000790752
0.000795941
0.000800647
0.00080489
0.000808687
0.000812054
0.000815008
0.000817564
0.000819737
0.000821543
0.000822995
0.000824106
0.000824889
0.000825355
0.000825519
0.000825389
0.000824977
0.000824295
0.000823353
0.000822159
0.000820724
0.000819057
0.000817166
0.00081506
0.000812747
0.000810234
0.00080753
0.00080464
0.000801573
0.000798335
0.000794933
0.000791371
0.000787658
0.000783797
0.000779796
0.000775659
0.000771391
0.000766998
0.000762484
0.000757854
0.000753112
0.000748263
0.00074331
0.000738259
0.000733112
0.000727874
0.000722549
0.000717139
0.000711647
0.000706078
0.000700435
0.00069472
0.000688937
0.000683089
0.000677179
0.000671208
0.000665181
0.000659099
0.000652965
0.000646781
0.000640549
0.000634272
0.000627951
0.000621589
0.000615187
0.000608746
0.000602269
0.000595756
0.000589209
0.000582628
0.000576015
0.000569371
0.000562695
0.000555989
0.000549252
0.000542484
0.000535685
0.000528855
0.000521992
0.000515097
0.000508168
0.000501199
0.000494198
0.000487158
0.000480081
0.000472961
0.000465804
0.000458603
0.000451364
0.000444082
0.000436765
0.000429409
0.000422024
0.000414605
0.00040717
0.000399711
0.00039225
0.000384779
0.000377322
0.000369864
0.000362437
0.000355021
0.000347653
0.000340307
0.00033303
0.000325783
0.000318625
0.0003115
0.000304485
0.000297507
0.000290658
0.000283851
0.000277191
0.000270559
0.000264092
0.000257621
0.000251305
0.000244936
0.000238698
0.000232321
0.000226019
0.000219484
0.000212986
0.000206158
0.000199317
0.000192026
0.000184604
0.000176521
0.000168309
0.000159735
0.000151625
0.000143772
0.00013721
0.000131848
0.000128996
0.000128014
0.00012934
0.000129212
0.000125259
0.000112962
9.35605e-05
7.21441e-05
5.27531e-05
3.58836e-05
2.17321e-05
8.92637e-06
-9.28231e-07
-9.21908e-06
-0.359831
-0.384696
-0.387377
-0.363558
-0.321213
-0.271342
-0.222809
-0.180937
-0.148464
-0.125198
-0.109887
-0.100906
-0.0966669
-0.095828
-0.0973321
-0.100375
-0.104351
-0.108815
-0.113448
-0.118033
-0.122423
-0.126528
-0.130299
-0.133716
-0.13678
-0.139503
-0.141906
-0.144015
-0.145855
-0.147456
-0.148843
-0.15004
-0.15107
-0.151953
-0.152705
-0.153342
-0.153876
-0.154318
-0.154678
-0.154963
-0.155178
-0.15533
-0.155422
-0.155455
-0.155434
-0.155359
-0.155231
-0.155052
-0.15482
-0.154537
-0.154201
-0.153813
-0.153372
-0.152878
-0.15233
-0.151726
-0.15107
-0.150357
-0.149589
-0.148764
-0.147885
-0.146949
-0.145957
-0.14491
-0.143808
-0.142651
-0.141441
-0.140178
-0.138864
-0.137498
-0.136084
-0.134621
-0.133112
-0.131558
-0.129961
-0.128324
-0.126646
-0.124932
-0.123182
-0.121399
-0.119586
-0.117745
-0.115877
-0.113986
-0.112073
-0.11014
-0.108189
-0.106225
-0.104249
-0.102264
-0.100272
-0.0982749
-0.0962756
-0.0942764
-0.0922788
-0.0902847
-0.0882965
-0.0863139
-0.0843427
-0.0823837
-0.0804381
-0.0785075
-0.0765935
-0.0746973
-0.0728205
-0.0709648
-0.0691305
-0.0673186
-0.0655298
-0.0637651
-0.0620252
-0.060311
-0.0586233
-0.0569625
-0.0553293
-0.053724
-0.0521471
-0.0505988
-0.0490796
-0.0475897
-0.0461292
-0.0446984
-0.0432972
-0.0419259
-0.0405844
-0.0392728
-0.0379909
-0.0367388
-0.0355163
-0.0343232
-0.0331593
-0.0320246
-0.0309189
-0.0298417
-0.0287927
-0.0277716
-0.0267783
-0.0258121
-0.0248731
-0.0239607
-0.0230745
-0.0222141
-0.0213792
-0.0205691
-0.0197836
-0.0190223
-0.0182844
-0.0175697
-0.0168775
-0.0162076
-0.0155593
-0.0149321
-0.0143256
-0.0137393
-0.0131727
-0.0126254
-0.0120968
-0.0115864
-0.0110937
-0.0106183
-0.0101597
-0.00971735
-0.00929084
-0.00887969
-0.00848345
-0.00810165
-0.00773386
-0.00737964
-0.00703858
-0.00671026
-0.00639426
-0.0060902
-0.00579767
-0.0055163
-0.00524571
-0.00498554
-0.00473543
-0.00449502
-0.00426399
-0.004042
-0.00382872
-0.00362385
-0.00342709
-0.00323814
-0.00305672
-0.00288256
-0.00271538
-0.00255492
-0.00240095
-0.00225322
-0.00211149
-0.00197554
-0.00184515
-0.0017201
-0.0016002
-0.00148526
-0.00137507
-0.00126946
-0.00116825
-0.00107126
-0.000978333
-0.000889324
-0.000804076
-0.000722444
-0.000644288
-0.000569471
-0.000497866
-0.000429346
-0.000363793
-0.00030109
-0.000241128
-0.000183798
-0.000128997
-7.6625e-05
-2.65648e-05
2.12666e-05
6.69484e-05
0.000110565
0.000152196
0.000191922
0.000229815
0.00026595
0.000300394
0.000333214
0.000364475
0.000394237
0.000422558
0.000449493
0.000475099
0.00049943
0.000522533
0.000544457
0.000565248
0.000584949
0.000603604
0.000621254
0.000637936
0.00065369
0.00066855
0.000682553
0.00069573
0.000708115
0.000719738
0.000730629
0.000740815
0.000750325
0.000759183
0.000767416
0.000775048
0.000782101
0.000788598
0.00079456
0.000800007
0.00080496
0.000809437
0.000813457
0.000817036
0.000820192
0.000822941
0.000825298
0.000827277
0.000828894
0.000830163
0.000831095
0.000831704
0.000832002
0.000832001
0.000831711
0.000831144
0.00083031
0.00082922
0.000827883
0.000826309
0.000824506
0.000822483
0.000820247
0.000817809
0.000815174
0.00081235
0.000809345
0.000806165
0.000802817
0.000799307
0.000795641
0.000791826
0.000787866
0.000783768
0.000779537
0.000775178
0.000770695
0.000766093
0.000761378
0.000756553
0.000751623
0.000746592
0.000741464
0.000736242
0.000730931
0.000725533
0.000720053
0.000714494
0.000708858
0.00070315
0.000697372
0.000691528
0.00068562
0.00067965
0.000673623
0.000667539
0.000661403
0.000655215
0.000648979
0.000642697
0.00063637
0.000630001
0.000623591
0.000617143
0.000610658
0.000604136
0.000597581
0.000590993
0.000584372
0.00057772
0.000571038
0.000564326
0.000557583
0.000550812
0.000544011
0.00053718
0.000530319
0.000523426
0.000516504
0.000509547
0.000502552
0.000495528
0.000488464
0.000481365
0.000474226
0.000467049
0.000459831
0.000452576
0.000445278
0.000437947
0.000430576
0.000423178
0.000415747
0.000408298
0.000400825
0.000393349
0.000385861
0.000378385
0.000370905
0.000363453
0.000356009
0.000348612
0.000341232
0.000333919
0.00032663
0.000319426
0.000312252
0.000305181
0.000298142
0.000291227
0.000284345
0.000277604
0.000270877
0.00026431
0.000257726
0.000251292
0.000244793
0.000238427
0.000231924
0.000225514
0.000218884
0.000212322
0.000205447
0.000198582
0.00019129
0.000183957
0.000176074
0.000168184
0.000159976
0.000152259
0.000144731
0.000138469
0.000133199
0.000130093
0.000128098
0.000127556
0.000124664
0.000118651
0.000107257
9.00367e-05
7.06782e-05
5.24911e-05
3.6482e-05
2.31803e-05
1.14047e-05
2.53753e-06
-6.72209e-06
-0.357745
-0.382231
-0.384677
-0.360768
-0.319148
-0.270418
-0.223084
-0.18231
-0.150585
-0.127729
-0.112564
-0.103559
-0.0992037
-0.098203
-0.0995263
-0.102386
-0.106182
-0.110469
-0.114933
-0.119358
-0.123598
-0.127566
-0.131213
-0.134519
-0.137482
-0.140117
-0.142442
-0.144481
-0.146262
-0.147811
-0.149153
-0.150312
-0.15131
-0.152164
-0.152892
-0.153508
-0.154024
-0.154451
-0.154798
-0.155072
-0.155278
-0.155421
-0.155505
-0.155533
-0.155506
-0.155426
-0.155293
-0.15511
-0.154874
-0.154587
-0.154247
-0.153856
-0.153412
-0.152914
-0.152362
-0.151756
-0.151094
-0.150378
-0.149606
-0.148777
-0.147893
-0.146953
-0.145957
-0.144905
-0.143797
-0.142635
-0.14142
-0.140151
-0.138831
-0.137459
-0.136038
-0.134569
-0.133053
-0.131493
-0.12989
-0.128246
-0.126562
-0.12484
-0.123082
-0.121292
-0.119472
-0.117624
-0.11575
-0.113853
-0.111934
-0.109997
-0.10804
-0.10607
-0.104089
-0.102098
-0.100101
-0.0980985
-0.096094
-0.09409
-0.0920881
-0.0900901
-0.088098
-0.0861138
-0.0841392
-0.0821766
-0.0802274
-0.0782934
-0.0763761
-0.0744767
-0.0725966
-0.0707371
-0.0688994
-0.0670843
-0.0652929
-0.0635261
-0.0617847
-0.060069
-0.0583799
-0.056718
-0.0550839
-0.0534781
-0.0519009
-0.0503526
-0.0488336
-0.0473442
-0.0458845
-0.0444546
-0.0430547
-0.0416848
-0.0403449
-0.0390351
-0.0377553
-0.0365055
-0.0352854
-0.0340949
-0.0329339
-0.0318021
-0.0306994
-0.0296254
-0.0285797
-0.0275621
-0.0265723
-0.0256097
-0.0246743
-0.0237656
-0.0228832
-0.0220266
-0.0211954
-0.0203892
-0.0196075
-0.01885
-0.0181159
-0.017405
-0.0167166
-0.0160504
-0.0154059
-0.0147824
-0.0141796
-0.0135969
-0.013034
-0.0124902
-0.0119651
-0.0114581
-0.0109688
-0.0104968
-0.0100414
-0.00960228
-0.00917892
-0.00877086
-0.00837764
-0.0079988
-0.00763391
-0.00728252
-0.00694422
-0.00661858
-0.0063052
-0.00600369
-0.00571366
-0.00543472
-0.0051665
-0.00490864
-0.00466077
-0.00442255
-0.00419364
-0.00397371
-0.00376245
-0.00355953
-0.00336466
-0.00317756
-0.00299793
-0.00282549
-0.00266
-0.00250118
-0.0023488
-0.00220261
-0.00206237
-0.00192785
-0.00179884
-0.00167515
-0.00155658
-0.00144291
-0.00133396
-0.00122956
-0.00112952
-0.00103367
-0.000941858
-0.000853924
-0.000769718
-0.000689093
-0.000611912
-0.000538039
-0.000467345
-0.000399706
-0.000335002
-0.000273116
-0.00021394
-0.000157366
-0.000103291
-5.16184e-05
-2.25252e-06
4.48972e-05
8.99178e-05
0.000132893
0.000173904
0.000213027
0.000250337
0.000285905
0.000319801
0.000352089
0.000382834
0.000412096
0.000439932
0.000466398
0.000491546
0.000515434
0.000538107
0.000559614
0.000580001
0.00059931
0.000617584
0.000634864
0.000651187
0.000666592
0.000681114
0.000694788
0.000707647
0.000719722
0.000731044
0.000741642
0.000751545
0.000760778
0.000769369
0.000777342
0.00078472
0.000791527
0.000797785
0.000803514
0.000808736
0.00081347
0.000817733
0.000821545
0.000824922
0.000827882
0.000830439
0.00083261
0.000834409
0.000835851
0.000836948
0.000837714
0.000838161
0.000838301
0.000838146
0.000837707
0.000836995
0.00083602
0.000834792
0.000833321
0.000831615
0.000829685
0.000827538
0.000825182
0.000822626
0.000819877
0.000816941
0.000813827
0.000810542
0.00080709
0.00080348
0.000799716
0.000795805
0.000791752
0.000787563
0.000783243
0.000778798
0.00077423
0.000769547
0.000764752
0.000759849
0.000754842
0.000749737
0.000744536
0.000739243
0.000733863
0.000728398
0.000722852
0.000717228
0.00071153
0.000705761
0.000699923
0.00069402
0.000688055
0.000682029
0.000675947
0.000669811
0.000663622
0.000657384
0.000651099
0.000644768
0.000638395
0.000631979
0.000625525
0.000619033
0.000612505
0.000605943
0.000599347
0.000592719
0.00058606
0.000579371
0.000572653
0.000565906
0.00055913
0.000552326
0.000545493
0.000538633
0.000531743
0.000524822
0.000517873
0.000510891
0.000503873
0.000496826
0.000489741
0.000482622
0.000475465
0.000468271
0.000461037
0.000453767
0.000446456
0.000439112
0.00043173
0.000424321
0.000416878
0.000409418
0.000401932
0.000394444
0.000386941
0.000379447
0.000371947
0.000364474
0.000357005
0.00034958
0.000342168
0.000334819
0.000327491
0.000320244
0.000313021
0.000305897
0.000298798
0.000291818
0.000284863
0.000278041
0.000271224
0.000264556
0.000257862
0.000251308
0.000244682
0.000238187
0.000231556
0.000225028
0.000218294
0.000211646
0.000204706
0.000197794
0.000190485
0.000183215
0.000175503
0.000167888
0.000160001
0.000152632
0.000145408
0.000139414
0.000134211
0.000130824
0.000127897
0.000125594
0.000120296
0.000112617
0.000102056
8.68273e-05
6.93374e-05
5.22226e-05
3.70887e-05
2.44831e-05
1.3496e-05
5.26784e-06
-4.64756e-06
-0.348816
-0.372225
-0.37602
-0.354405
-0.314778
-0.267927
-0.222549
-0.183513
-0.152869
-0.130572
-0.115613
-0.106603
-0.102126
-0.100946
-0.102066
-0.104714
-0.108298
-0.112378
-0.116644
-0.120881
-0.124947
-0.128755
-0.132256
-0.13543
-0.138276
-0.140807
-0.143041
-0.145001
-0.146713
-0.148202
-0.149493
-0.150607
-0.151567
-0.152389
-0.15309
-0.153683
-0.154179
-0.154589
-0.154921
-0.155183
-0.155378
-0.155512
-0.155588
-0.155609
-0.155576
-0.15549
-0.155353
-0.155165
-0.154925
-0.154633
-0.15429
-0.153895
-0.153447
-0.152946
-0.15239
-0.15178
-0.151115
-0.150394
-0.149618
-0.148785
-0.147897
-0.146952
-0.145951
-0.144894
-0.143781
-0.142614
-0.141393
-0.140119
-0.138794
-0.137417
-0.135989
-0.134514
-0.132993
-0.131427
-0.129818
-0.128169
-0.12648
-0.124755
-0.122992
-0.121197
-0.119372
-0.117519
-0.115639
-0.113737
-0.111814
-0.109872
-0.107913
-0.10594
-0.103955
-0.101961
-0.0999595
-0.0979536
-0.0959451
-0.0939366
-0.0919302
-0.0899281
-0.0879324
-0.0859453
-0.0839676
-0.0820018
-0.0800495
-0.0781124
-0.076192
-0.0742896
-0.0724065
-0.070544
-0.0687034
-0.0668855
-0.0650915
-0.0633224
-0.0615787
-0.059861
-0.0581702
-0.0565067
-0.0548713
-0.0532644
-0.0516863
-0.0501375
-0.0486181
-0.0471285
-0.0456689
-0.0442394
-0.0428401
-0.0414711
-0.0401323
-0.0388237
-0.0375454
-0.0362973
-0.035079
-0.0338906
-0.0327318
-0.0316023
-0.0305021
-0.0294306
-0.0283877
-0.0273729
-0.026386
-0.0254265
-0.0244942
-0.0235887
-0.0227094
-0.0218561
-0.0210282
-0.0202253
-0.0194469
-0.0186927
-0.017962
-0.0172544
-0.0165694
-0.0159065
-0.0152653
-0.0146452
-0.0140456
-0.0134662
-0.0129065
-0.0123659
-0.0118439
-0.01134
-0.0108538
-0.0103847
-0.00993228
-0.00949605
-0.00907554
-0.00867027
-0.00827979
-0.00790363
-0.00754136
-0.00719254
-0.00685674
-0.00653356
-0.00622258
-0.00592342
-0.00563567
-0.00535896
-0.00509291
-0.00483716
-0.00459136
-0.00435515
-0.00412819
-0.00391017
-0.00370075
-0.00349963
-0.00330652
-0.00312111
-0.00294313
-0.0027723
-0.00260836
-0.00245106
-0.00230014