/*--------------------------------*- C++ -*----------------------------------*\
| =========                 |                                                 |
| \\      /  F ield         | OpenFOAM: The Open Source CFD Toolbox           |
|  \\    /   O peration     | Version:  v2012                                 |
|   \\  /    A nd           | Website:  www.openfoam.com                      |
|    \\/     M anipulation  |                                                 |
\*---------------------------------------------------------------------------*/
FoamFile
{
    version     2.0;
    format      ascii;
    class       volVectorField;
    location    "80";
    object      U;
}
// * * * * * * * * * * * * * * * * * * * * * * * * * * * * * * * * * * * * * //

dimensions      [0 1 -1 0 0 0 0];


internalField   nonuniform List<vector> 
25248
(
(-0.269677 -3.91394e-17 0.0252404)
(-0.378472 -3.96146e-17 0.0166672)
(-0.411 -3.89032e-17 0.00133063)
(-0.411906 -3.659e-17 -0.0124261)
(-0.360727 -3.17498e-17 -0.0219751)
(-0.298093 -2.63331e-17 -0.0268559)
(-0.212027 -2.12062e-17 -0.0295106)
(-0.126905 -1.68823e-17 -0.0294613)
(-0.0378871 -1.35957e-17 -0.0281697)
(0.0454922 -1.12982e-17 -0.0262356)
(0.121954 -9.8471e-18 -0.0235864)
(0.19123 -9.07786e-18 -0.0209937)
(0.253166 -8.80652e-18 -0.0186254)
(0.308217 -8.88423e-18 -0.016502)
(0.357032 -9.19777e-18 -0.0146059)
(0.400282 -9.66251e-18 -0.0129188)
(0.438572 -1.02159e-17 -0.0114183)
(0.472455 -1.0812e-17 -0.0100864)
(0.502419 -1.14181e-17 -0.00890568)
(0.528916 -1.20112e-17 -0.0078626)
(0.552345 -1.25762e-17 -0.00694308)
(0.573071 -1.3104e-17 -0.00613344)
(0.59141 -1.35898e-17 -0.00542133)
(0.607656 -1.40318e-17 -0.00479573)
(0.622057 -1.44303e-17 -0.00424644)
(0.634845 -1.47869e-17 -0.00376428)
(0.646211 -1.51044e-17 -0.00334142)
(0.656337 -1.53856e-17 -0.00297046)
(0.665365 -1.56339e-17 -0.00264485)
(0.67344 -1.58527e-17 -0.00235881)
(0.680663 -1.60449e-17 -0.00210685)
(0.687149 -1.62136e-17 -0.00188468)
(0.692964 -1.63614e-17 -0.00168786)
(0.698205 -1.64908e-17 -0.00151344)
(0.70291 -1.66039e-17 -0.00135775)
(0.707162 -1.67024e-17 -0.00121885)
(0.710976 -1.6788e-17 -0.00109368)
(0.714428 -1.6862e-17 -0.000981388)
(0.717513 -1.69256e-17 -0.000878865)
(0.720305 -1.69797e-17 -0.000786561)
(0.722782 -1.7025e-17 -0.000700734)
(0.725017 -1.70622e-17 -0.000623581)
(0.726972 -1.70919e-17 -0.000549904)
(0.728727 -1.71143e-17 -0.000484588)
(0.730225 -1.71299e-17 -0.000419438)
(0.731557 -1.71388e-17 -0.000363785)
(0.732646 -1.71412e-17 -0.000303931)
(0.733598 -1.71372e-17 -0.000256846)
(0.734313 -1.71269e-17 -0.000198812)
(0.734918 -1.71102e-17 -0.000160143)
(0.735286 -1.70872e-17 -9.88957e-05)
(0.735575 -1.7058e-17 -6.91339e-05)
(0.735622 -1.39558e-17 1.73339e-06)
(0.735579 -1.37392e-17 1.80065e-05)
(0.735383 -1.66591e-17 4.19189e-05)
(0.735026 -1.68777e-17 6.53025e-05)
(0.73453 -1.68164e-17 9.08596e-05)
(0.733901 -1.67485e-17 0.000115179)
(0.733136 -1.6674e-17 0.000139113)
(0.732245 -1.65929e-17 0.00016302)
(0.731227 -1.65052e-17 0.000186777)
(0.73009 -1.64108e-17 0.000210182)
(0.728834 -1.63097e-17 0.000233311)
(0.727469 -1.62021e-17 0.000255739)
(0.725992 -1.60879e-17 0.000277721)
(0.724415 -1.59671e-17 0.000298656)
(0.722736 -1.58399e-17 0.000318912)
(0.720967 -1.57064e-17 0.000337819)
(0.719106 -1.55667e-17 0.000355337)
(0.717165 -1.54208e-17 0.000371048)
(0.715144 -1.52689e-17 0.000385068)
(0.713054 -1.51113e-17 0.000397162)
(0.710894 -1.49479e-17 0.00040724)
(0.708679 -1.4779e-17 0.000415267)
(0.706407 -1.46049e-17 0.000421521)
(0.704092 -1.44256e-17 0.000425419)
(0.701735 -1.42415e-17 0.000427475)
(0.699347 -1.40526e-17 0.000427227)
(0.696933 -1.38592e-17 0.000424957)
(0.694501 -1.36616e-17 0.000420407)
(0.692059 -1.34599e-17 0.000413862)
(0.689615 -1.32545e-17 0.000405273)
(0.687172 -1.30456e-17 0.000394739)
(0.684742 -1.28332e-17 0.000382344)
(0.682327 -1.2618e-17 0.000368483)
(0.67993 -1.24001e-17 0.000353119)
(0.677556 -1.21798e-17 0.000336647)
(0.675208 -1.19572e-17 0.00031961)
(0.672889 -1.17328e-17 0.000301735)
(0.670598 -1.15067e-17 0.000283878)
(0.668337 -1.12793e-17 0.000266332)
(0.666098 -1.10509e-17 0.000249378)
(0.663881 -1.08218e-17 0.000234923)
(0.661673 -1.05924e-17 0.00022215)
(0.659469 -1.03629e-17 0.000211462)
(0.657253 -1.01337e-17 0.00020458)
(0.655018 -9.90517e-18 0.000201003)
(0.652744 -9.67772e-18 0.000202395)
(0.650418 -9.45148e-18 0.000208563)
(0.648027 -9.22677e-18 0.000219462)
(0.645554 -9.00391e-18 0.000235114)
(0.642986 -8.78314e-18 0.000255351)
(0.640308 -8.56469e-18 0.000279959)
(0.637511 -8.34876e-18 0.000308341)
(0.634584 -8.13551e-18 0.000340223)
(0.631519 -7.92509e-18 0.00037485)
(0.62831 -7.71762e-18 0.000411463)
(0.624956 -7.51318e-18 0.000449262)
(0.621453 -7.31188e-18 0.000487814)
(0.617805 -7.11377e-18 0.000526057)
(0.614011 -6.91894e-18 0.000563902)
(0.610076 -6.72738e-18 0.000601058)
(0.606003 -6.53913e-18 0.000637377)
(0.601801 -6.35421e-18 0.000672293)
(0.597473 -6.17266e-18 0.000705534)
(0.593031 -5.99449e-18 0.000737099)
(0.588477 -5.8197e-18 0.000766181)
(0.583825 -5.64831e-18 0.000793402)
(0.579078 -5.48032e-18 0.000818594)
(0.57425 -5.31572e-18 0.000841761)
(0.569344 -5.15456e-18 0.000862318)
(0.564373 -4.99669e-18 0.00088089)
(0.55934 -4.84229e-18 0.000896982)
(0.55426 -4.69116e-18 0.000911383)
(0.549134 -4.54359e-18 0.000923671)
(0.543972 -4.39924e-18 0.000933888)
(0.538783 -4.25814e-18 0.000942197)
(0.533574 -4.12032e-18 0.000948873)
(0.528351 -3.98577e-18 0.000953803)
(0.52312 -3.85447e-18 0.000957339)
(0.517887 -3.72639e-18 0.000959027)
(0.512658 -3.60149e-18 0.000959932)
(0.507438 -3.47977e-18 0.000957843)
(0.502232 -3.36116e-18 0.000954022)
(0.497043 -3.24561e-18 0.000949416)
(0.491879 -3.13311e-18 0.000944747)
(0.486741 -3.02361e-18 0.000938466)
(0.481634 -2.91704e-18 0.000933801)
(0.476563 -2.81342e-18 0.000928154)
(0.47153 -2.71268e-18 0.000920962)
(0.466539 -2.61478e-18 0.000912731)
(0.461591 -2.51967e-18 0.000903539)
(0.456691 -2.42729e-18 0.000893886)
(0.451839 -2.33761e-18 0.000883292)
(0.447039 -2.25057e-18 0.000873)
(0.442292 -2.16616e-18 0.000860141)
(0.4376 -2.08428e-18 0.000847216)
(0.432964 -2.00489e-18 0.000834601)
(0.428386 -1.92795e-18 0.000822117)
(0.423868 -1.8534e-18 0.000809423)
(0.419411 -1.7812e-18 0.000796818)
(0.415014 -1.71129e-18 0.000783624)
(0.41068 -1.64361e-18 0.000771983)
(0.406409 -1.57813e-18 0.00075991)
(0.402202 -1.5148e-18 0.000747177)
(0.398058 -1.45355e-18 0.000734111)
(0.393978 -1.39434e-18 0.000720878)
(0.389962 -1.33711e-18 0.000707587)
(0.38601 -1.28181e-18 0.000694296)
(0.382122 -1.2284e-18 0.000681037)
(0.378298 -1.17681e-18 0.000667831)
(0.374539 -1.127e-18 0.0006547)
(0.370843 -1.07893e-18 0.000641655)
(0.36721 -1.03254e-18 0.000628717)
(0.363641 -9.87777e-19 0.000615893)
(0.360134 -9.44605e-19 0.000603199)
(0.356689 -9.02973e-19 0.000590639)
(0.353306 -8.62834e-19 0.000578235)
(0.349983 -8.24144e-19 0.000566021)
(0.346721 -7.86857e-19 0.000553986)
(0.343519 -7.50931e-19 0.000542121)
(0.340375 -7.16323e-19 0.000530431)
(0.33729 -6.82993e-19 0.000518926)
(0.334262 -6.50899e-19 0.000507611)
(0.331291 -6.20001e-19 0.00049649)
(0.328376 -5.9026e-19 0.000485568)
(0.325516 -5.61639e-19 0.000474845)
(0.32271 -5.34098e-19 0.000464324)
(0.319957 -5.07602e-19 0.000454007)
(0.317256 -4.82115e-19 0.000443893)
(0.314607 -4.57603e-19 0.000433983)
(0.312009 -4.34031e-19 0.000424277)
(0.30946 -4.11368e-19 0.000414774)
(0.306961 -3.8958e-19 0.000405473)
(0.304509 -3.68639e-19 0.000396373)
(0.302104 -3.48512e-19 0.000387473)
(0.299746 -3.29172e-19 0.000378769)
(0.297432 -3.1059e-19 0.000370262)
(0.295163 -2.92739e-19 0.000361947)
(0.292938 -2.75593e-19 0.000353823)
(0.290755 -2.59126e-19 0.000345886)
(0.288614 -2.43311e-19 0.000338197)
(0.286514 -2.28125e-19 0.000330698)
(0.284454 -2.13547e-19 0.00032334)
(0.282434 -1.99555e-19 0.00031614)
(0.280451 -1.86126e-19 0.000309107)
(0.278507 -1.73238e-19 0.000302244)
(0.276599 -1.60872e-19 0.000295551)
(0.274727 -1.49008e-19 0.000289017)
(0.272891 -1.37627e-19 0.000282643)
(0.271089 -1.26711e-19 0.000276431)
(0.269321 -1.16243e-19 0.000270375)
(0.267585 -1.06206e-19 0.00026447)
(0.265883 -9.65824e-20 0.000258713)
(0.264211 -8.7358e-20 0.000253101)
(0.262571 -7.8517e-20 0.000247628)
(0.260961 -7.00448e-20 0.000242295)
(0.25938 -6.19274e-20 0.000237095)
(0.257829 -5.41511e-20 0.000232026)
(0.256305 -4.6703e-20 0.000227085)
(0.254809 -3.95703e-20 0.000222269)
(0.253341 -3.27411e-20 0.000217575)
(0.251899 -2.62036e-20 0.000213)
(0.250482 -1.99466e-20 0.000208533)
(0.249091 -1.39598e-20 0.000204177)
(0.247725 -8.23294e-21 0.000199936)
(0.246383 -2.75576e-21 0.000195805)
(0.245064 2.48138e-21 0.00019178)
(0.243769 7.48772e-21 0.000187858)
(0.242496 1.22721e-20 0.000184036)
(0.241245 1.68431e-20 0.000180311)
(0.240016 2.12089e-20 0.000176681)
(0.238808 2.53773e-20 0.000173141)
(0.23762 2.9356e-20 0.000169692)
(0.236453 3.31522e-20 0.000166328)
(0.235306 3.67729e-20 0.000163049)
(0.234178 4.02249e-20 0.000159853)
(0.233068 4.35147e-20 0.000156737)
(0.231978 4.66484e-20 0.000153698)
(0.230905 4.96321e-20 0.000150737)
(0.22985 5.24715e-20 0.000147846)
(0.228812 5.5172e-20 0.000145028)
(0.227791 5.77391e-20 0.000142282)
(0.226787 6.01778e-20 0.0001396)
(0.225799 6.2493e-20 0.000136987)
(0.224827 6.46893e-20 0.000134438)
(0.22387 6.67713e-20 0.000131952)
(0.222929 6.87435e-20 0.000129526)
(0.222002 7.06098e-20 0.000127159)
(0.22109 7.23744e-20 0.000124852)
(0.220192 7.40411e-20 0.000122598)
(0.219308 7.56137e-20 0.0001204)
(0.218438 7.70956e-20 0.000118256)
(0.217581 7.84905e-20 0.000116162)
(0.216737 7.98014e-20 0.000114119)
(0.215906 8.10317e-20 0.000112126)
(0.215087 8.21843e-20 0.00011018)
(0.214281 8.32622e-20 0.00010828)
(0.213487 8.42681e-20 0.000106425)
(0.212704 8.52048e-20 0.000104614)
(0.211933 8.60749e-20 0.000102846)
(0.211173 8.68809e-20 0.00010112)
(0.210425 8.76251e-20 9.94334e-05)
(0.209687 8.83099e-20 9.77875e-05)
(0.208959 8.89375e-20 9.61794e-05)
(0.208242 8.951e-20 9.46081e-05)
(0.207536 9.00295e-20 9.30751e-05)
(0.206839 9.04979e-20 9.15752e-05)
(0.206152 9.09171e-20 9.01113e-05)
(0.205474 9.12889e-20 8.86802e-05)
(0.204806 9.16152e-20 8.7281e-05)
(0.204147 9.18975e-20 8.5916e-05)
(0.203497 9.21375e-20 8.45814e-05)
(0.202856 9.23368e-20 8.32753e-05)
(0.202224 9.24967e-20 8.2001e-05)
(0.2016 9.26189e-20 8.07533e-05)
(0.200984 9.27046e-20 7.95336e-05)
(0.200377 9.27552e-20 7.83424e-05)
(0.199777 9.2772e-20 7.71773e-05)
(0.199186 9.27562e-20 7.60379e-05)
(0.198602 9.27091e-20 7.4925e-05)
(0.198025 9.26316e-20 7.38366e-05)
(0.197456 9.25252e-20 7.27698e-05)
(0.196895 9.23906e-20 7.17284e-05)
(0.19634 9.2229e-20 7.07102e-05)
(0.195792 9.20414e-20 6.97129e-05)
(0.195251 9.18287e-20 6.87378e-05)
(0.194717 9.15918e-20 6.77852e-05)
(0.19419 9.13317e-20 6.6851e-05)
(0.193668 9.10491e-20 6.59384e-05)
(0.193154 9.07449e-20 6.50463e-05)
(0.192645 9.04199e-20 6.41737e-05)
(0.192142 9.00748e-20 6.33201e-05)
(0.191646 8.97103e-20 6.24837e-05)
(0.191155 8.93273e-20 6.16637e-05)
(0.19067 8.89263e-20 6.08627e-05)
(0.19019 8.85081e-20 6.00805e-05)
(0.189716 8.80732e-20 5.93147e-05)
(0.189248 8.76223e-20 5.85659e-05)
(0.188785 8.7156e-20 5.78316e-05)
(0.188327 8.66748e-20 5.71148e-05)
(0.187874 8.61793e-20 5.64121e-05)
(0.187426 8.567e-20 5.57245e-05)
(0.186983 8.51475e-20 5.50515e-05)
(0.186545 8.46122e-20 5.43951e-05)
(0.186111 8.40646e-20 5.37501e-05)
(0.185682 8.35053e-20 5.31208e-05)
(0.185258 8.29346e-20 5.25053e-05)
(0.184838 8.23529e-20 5.19036e-05)
(0.184422 8.17608e-20 5.13142e-05)
(0.184011 8.11585e-20 5.07392e-05)
(0.183603 8.05465e-20 5.0175e-05)
(0.1832 7.99252e-20 4.96243e-05)
(0.182801 7.92949e-20 4.90826e-05)
(0.182406 7.86561e-20 4.85547e-05)
(0.182015 7.80091e-20 4.80394e-05)
(0.181627 7.73542e-20 4.75354e-05)
(0.181243 7.66917e-20 4.70427e-05)
(0.180863 7.6022e-20 4.65609e-05)
(0.180486 7.53453e-20 4.60906e-05)
(0.180112 7.46619e-20 4.56274e-05)
(0.179743 7.39722e-20 4.51757e-05)
(0.179376 7.32764e-20 4.47354e-05)
(0.179012 7.25747e-20 4.43023e-05)
(0.178652 7.18673e-20 4.38796e-05)
(0.178295 7.11546e-20 4.34637e-05)
(0.177941 7.04367e-20 4.30562e-05)
(0.17759 6.97138e-20 4.26575e-05)
(0.177242 6.89861e-20 4.22669e-05)
(0.176897 6.82537e-20 4.18835e-05)
(0.176555 6.75168e-20 4.15026e-05)
(0.176215 6.67755e-20 4.1128e-05)
(0.175879 6.60299e-20 4.07605e-05)
(0.175545 6.52801e-20 4.03936e-05)
(0.175214 6.45261e-20 4.00301e-05)
(0.174885 6.3768e-20 3.96646e-05)
(0.17456 6.30058e-20 3.93037e-05)
(0.174237 6.22394e-20 3.89369e-05)
(0.173917 6.1469e-20 3.8573e-05)
(0.1736 6.06943e-20 3.82e-05)
(0.173286 5.99154e-20 3.78199e-05)
(0.172974 5.91318e-20 3.74463e-05)
(0.172666 5.83439e-20 3.70326e-05)
(0.172361 5.7551e-20 3.66416e-05)
(0.17206 5.67534e-20 3.62113e-05)
(0.171761 5.59508e-20 3.57753e-05)
(0.171466 5.51433e-20 3.5311e-05)
(0.171175 5.43304e-20 3.48372e-05)
(0.170888 5.35124e-20 3.43276e-05)
(0.170604 5.26889e-20 3.381e-05)
(0.170326 5.18603e-20 3.32482e-05)
(0.170051 5.10263e-20 3.26776e-05)
(0.169783 5.01876e-20 3.20548e-05)
(0.169517 4.93441e-20 3.14327e-05)
(0.169259 4.84969e-20 3.07584e-05)
(0.169004 4.76458e-20 3.00932e-05)
(0.168757 4.67924e-20 2.93736e-05)
(0.168512 4.59366e-20 2.86858e-05)
(0.168277 4.50804e-20 2.79609e-05)
(0.168043 4.42234e-20 2.72874e-05)
(0.167819 4.3369e-20 2.65738e-05)
(0.167594 4.25159e-20 2.59683e-05)
(0.16738 4.16669e-20 2.53672e-05)
(0.167164 4.08196e-20 2.49296e-05)
(0.166958 3.99783e-20 2.44772e-05)
(0.166745 3.91408e-20 2.42375e-05)
(0.166544 3.83119e-20 2.39794e-05)
(0.166333 3.74882e-20 2.39984e-05)
(0.166134 3.66753e-20 2.39823e-05)
(0.165918 3.58684e-20 2.43178e-05)
(0.165715 3.50746e-20 2.45804e-05)
(0.165489 3.42876e-20 2.52895e-05)
(0.165277 3.35161e-20 2.58418e-05)
(0.165033 3.27517e-20 2.69701e-05)
(0.164805 3.20059e-20 2.78257e-05)
(0.164534 3.12679e-20 2.9289e-05)
(0.164282 3.05493e-20 3.0463e-05)
(0.163973 2.98343e-20 3.25587e-05)
(0.163686 2.91373e-20 3.41584e-05)
(0.163327 2.84367e-20 3.68217e-05)
(0.162996 2.77472e-20 3.86147e-05)
(0.162576 2.70397e-20 4.15201e-05)
(0.162194 2.63317e-20 4.30187e-05)
(0.161708 2.55892e-20 4.56743e-05)
(0.161277 2.48365e-20 4.6163e-05)
(0.160734 2.4043e-20 4.7796e-05)
(0.160269 2.32421e-20 4.71272e-05)
(0.15968 2.23889e-20 4.8149e-05)
(0.159193 2.14932e-20 4.74032e-05)
(0.158567 2.04935e-20 4.84471e-05)
(0.158085 1.94416e-20 4.62644e-05)
(0.157465 1.83344e-20 4.46587e-05)
(0.157049 1.72721e-20 3.79849e-05)
(0.156502 1.62733e-20 3.09203e-05)
(0.156211 1.54497e-20 1.86413e-05)
(0.155765 1.48385e-20 8.80599e-06)
(0.155605 1.46303e-20 -2.90453e-06)
(0.155237 1.4927e-20 -4.48007e-06)
(0.155087 1.57597e-20 5.32919e-06)
(0.154464 1.66771e-20 4.38766e-05)
(0.153769 1.67203e-20 0.000108372)
(0.152175 1.48987e-20 0.000173263)
(0.150928 1.1894e-20 0.00021882)
(0.14907 8.74188e-21 0.000239333)
(0.147766 6.05663e-21 0.000237544)
(0.145937 3.83514e-21 0.000226144)
(0.144822 1.89867e-21 0.00020752)
(0.143194 3.31292e-23 0.000176783)
(0.14247 -1.55285e-21 0.000140123)
(0.141325 -2.01562e-21 9.64211e-05)
(-0.194473 0 0.0847229)
(-0.271631 0 0.0473405)
(-0.29759 0 0.013923)
(-0.288219 0 -0.0129772)
(-0.242642 0 -0.0322656)
(-0.179954 0 -0.0430534)
(-0.101058 0 -0.0487146)
(-0.0196131 0 -0.049641)
(0.06288 0 -0.0478873)
(0.140852 0 -0.0445194)
(0.212596 0 -0.0402555)
(0.277823 0 -0.0359569)
(0.33644 0 -0.0319431)
(0.388804 0 -0.0283057)
(0.43544 0 -0.0250464)
(0.476915 0 -0.0221441)
(0.513759 0 -0.019565)
(0.546457 0 -0.017277)
(0.575457 0 -0.0152509)
(0.601168 0 -0.0134605)
(0.62396 0 -0.0118825)
(0.644171 0 -0.0104947)
(0.662105 0 -0.00927627)
(0.678038 0 -0.00820804)
(0.692209 0 -0.00727227)
(0.704837 0 -0.00645262)
(0.716108 0 -0.00573526)
(0.726192 0 -0.00510702)
(0.73523 0 -0.00455648)
(0.743355 0 -0.00407336)
(0.750668 0 -0.00364831)
(0.757274 0 -0.00327352)
(0.763245 0 -0.0029419)
(0.768664 0 -0.00264742)
(0.773578 0 -0.00238483)
(0.778054 0 -0.00214964)
(0.78212 0 -0.00193801)
(0.785834 0 -0.00174663)
(0.789208 0 -0.00157254)
(0.792292 0 -0.0014134)
(0.795087 0 -0.00126687)
(0.797639 0 -0.00113134)
(0.799938 0 -0.00100509)
(0.802029 0 -0.000887042)
(0.803893 0 -0.000775787)
(0.805575 0 -0.000670634)
(0.807049 0 -0.000570529)
(0.808359 0 -0.000474777)
(0.809477 0 -0.000382851)
(0.810442 0 -0.000293524)
(0.811232 0 -0.000207219)
(0.811872 0 -0.000121763)
(0.812357 0 -4.26555e-05)
(0.812678 0 2.1498e-05)
(0.812872 0 7.95741e-05)
(0.812896 0 0.000153677)
(0.812809 0 0.000213573)
(0.812571 0 0.000279468)
(0.812198 0 0.000343525)
(0.811693 0 0.000406454)
(0.811057 0 0.000467733)
(0.810294 0 0.000527437)
(0.809404 0 0.000585373)
(0.808392 0 0.000641233)
(0.807259 0 0.000695225)
(0.80601 0 0.000746572)
(0.804645 0 0.000795909)
(0.80317 0 0.000842343)
(0.801584 0 0.000886145)
(0.799894 0 0.000926828)
(0.7981 0 0.000964811)
(0.796207 0 0.000999772)
(0.794216 0 0.00103158)
(0.792131 0 0.00106037)
(0.789954 0 0.0010867)
(0.78769 0 0.00110955)
(0.785336 0 0.00112988)
(0.782901 0 0.0011472)
(0.780379 0 0.00116163)
(0.777777 0 0.00117354)
(0.775094 0 0.00118333)
(0.772328 0 0.00119031)
(0.769479 0 0.00119632)
(0.766542 0 0.00120006)
(0.763521 0 0.00120244)
(0.76041 0 0.0012034)
(0.75721 0 0.00120481)
(0.753914 0 0.00120644)
(0.750519 0 0.00120889)
(0.74702 0 0.00121237)
(0.743414 0 0.00121765)
(0.739696 0 0.00122533)
(0.735861 0 0.00123577)
(0.731907 0 0.00125014)
(0.727835 0 0.00126801)
(0.723641 0 0.00129068)
(0.719327 0 0.0013167)
(0.714896 0 0.00134749)
(0.710347 0 0.00138351)
(0.705685 0 0.00142409)
(0.700913 0 0.00146877)
(0.696036 0 0.00151726)
(0.69106 0 0.00156902)
(0.685989 0 0.00162337)
(0.680829 0 0.00167981)
(0.675586 0 0.00173761)
(0.670266 0 0.00179591)
(0.664875 0 0.00185389)
(0.659417 0 0.00191084)
(0.653898 0 0.0019657)
(0.648321 0 0.0020185)
(0.642692 0 0.00206929)
(0.637016 0 0.00211774)
(0.631299 0 0.00216326)
(0.625545 0 0.00220554)
(0.619761 0 0.00224452)
(0.61395 0 0.00228002)
(0.608118 0 0.00231185)
(0.60227 0 0.00234007)
(0.596411 0 0.00236476)
(0.590545 0 0.0023859)
(0.584677 0 0.00240359)
(0.578813 0 0.00241775)
(0.572954 0 0.00242894)
(0.56711 0 0.00243685)
(0.561282 0 0.00244194)
(0.555473 0 0.00244399)
(0.549687 0 0.00244314)
(0.543928 0 0.00243965)
(0.5382 0 0.0024336)
(0.532506 0 0.00242562)
(0.526849 0 0.00241408)
(0.521232 0 0.00240545)
(0.515658 0 0.00239346)
(0.51013 0 0.00237771)
(0.504651 0 0.00235934)
(0.499222 0 0.00234107)
(0.49385 0 0.00231416)
(0.48853 0 0.00229058)
(0.483267 0 0.00226658)
(0.478063 0 0.00224167)
(0.47292 0 0.00221581)
(0.467838 0 0.00218901)
(0.46282 0 0.00216175)
(0.457866 0 0.00213232)
(0.452975 0 0.00210819)
(0.448153 0 0.00207942)
(0.443399 0 0.00204949)
(0.438712 0 0.00201897)
(0.434094 0 0.00198809)
(0.429545 0 0.00195674)
(0.425066 0 0.00192588)
(0.420657 0 0.00189064)
(0.416316 0 0.0018584)
(0.412045 0 0.00182662)
(0.407844 0 0.00179494)
(0.403712 0 0.00176334)
(0.39965 0 0.00173184)
(0.395657 0 0.00170045)
(0.391732 0 0.00166922)
(0.387877 0 0.00163817)
(0.384089 0 0.00160734)
(0.380369 0 0.00157675)
(0.376715 0 0.00154644)
(0.373128 0 0.00151642)
(0.369607 0 0.00148672)
(0.366151 0 0.00145735)
(0.362759 0 0.00142834)
(0.359431 0 0.00139971)
(0.356166 0 0.00137148)
(0.352963 0 0.00134367)
(0.349821 0 0.00131627)
(0.346739 0 0.0012893)
(0.343717 0 0.00126277)
(0.340753 0 0.00123668)
(0.337847 0 0.00121104)
(0.334998 0 0.00118585)
(0.332204 0 0.00116111)
(0.329466 0 0.00113682)
(0.326781 0 0.00111299)
(0.324149 0 0.00108961)
(0.321569 0 0.00106669)
(0.31904 0 0.00104423)
(0.316561 0 0.00102221)
(0.314131 0 0.00100064)
(0.311749 0 0.000979517)
(0.309415 0 0.000958836)
(0.307127 0 0.00093859)
(0.304884 0 0.000918776)
(0.302686 0 0.000899385)
(0.300531 0 0.000880426)
(0.298419 0 0.000861955)
(0.296349 0 0.00084393)
(0.29432 0 0.000826256)
(0.292331 0 0.000808943)
(0.290381 0 0.000792011)
(0.288469 0 0.000775458)
(0.286595 0 0.000759281)
(0.284758 0 0.000743469)
(0.282956 0 0.000728016)
(0.28119 0 0.000712921)
(0.279458 0 0.000698177)
(0.27776 0 0.000683773)
(0.276095 0 0.000669704)
(0.274462 0 0.000655963)
(0.27286 0 0.000642543)
(0.27129 0 0.000629437)
(0.269749 0 0.00061664)
(0.268238 0 0.000604147)
(0.266756 0 0.00059195)
(0.265302 0 0.000580044)
(0.263876 0 0.000568422)
(0.262476 0 0.000557081)
(0.261103 0 0.000546004)
(0.259756 0 0.000535182)
(0.258433 0 0.000524615)
(0.257136 0 0.000514297)
(0.255862 0 0.000504221)
(0.254612 0 0.000494382)
(0.253385 0 0.000484773)
(0.252181 0 0.000475391)
(0.250998 0 0.000466228)
(0.249837 0 0.000457279)
(0.248698 0 0.000448537)
(0.247578 0 0.000439999)
(0.246479 0 0.000431661)
(0.2454 0 0.000423516)
(0.24434 0 0.000415562)
(0.243298 0 0.000407789)
(0.242275 0 0.000400194)
(0.241271 0 0.000392774)
(0.240283 0 0.000385526)
(0.239313 0 0.000378443)
(0.23836 0 0.000371521)
(0.237424 0 0.000364759)
(0.236504 0 0.00035815)
(0.235599 0 0.000351689)
(0.23471 0 0.000345376)
(0.233836 0 0.000339206)
(0.232977 0 0.000333174)
(0.232133 0 0.000327277)
(0.231302 0 0.000321512)
(0.230486 0 0.000315875)
(0.229683 0 0.000310363)
(0.228894 0 0.000304975)
(0.228118 0 0.000299706)
(0.227354 0 0.000294551)
(0.226603 0 0.00028951)
(0.225864 0 0.00028458)
(0.225138 0 0.000279757)
(0.224423 0 0.000275039)
(0.223719 0 0.000270424)
(0.223027 0 0.00026591)
(0.222346 0 0.00026149)
(0.221676 0 0.000257167)
(0.221016 0 0.000252938)
(0.220367 0 0.000248798)
(0.219727 0 0.000244747)
(0.219098 0 0.000240782)
(0.218479 0 0.0002369)
(0.217869 0 0.000233101)
(0.217269 0 0.000229381)
(0.216677 0 0.000225741)
(0.216095 0 0.000222176)
(0.215522 0 0.000218685)
(0.214957 0 0.000215267)
(0.214401 0 0.00021192)
(0.213853 0 0.000208642)
(0.213313 0 0.000205432)
(0.212781 0 0.00020229)
(0.212257 0 0.000199213)
(0.211741 0 0.000196196)
(0.211232 0 0.000193243)
(0.210731 0 0.000190352)
(0.210237 0 0.000187518)
(0.20975 0 0.000184741)
(0.20927 0 0.000182022)
(0.208796 0 0.000179358)
(0.20833 0 0.000176747)
(0.20787 0 0.000174191)
(0.207416 0 0.000171687)
(0.206969 0 0.000169233)
(0.206528 0 0.00016683)
(0.206093 0 0.000164472)
(0.205664 0 0.000162163)
(0.205241 0 0.0001599)
(0.204823 0 0.000157686)
(0.204411 0 0.000155515)
(0.204005 0 0.000153388)
(0.203604 0 0.000151303)
(0.203208 0 0.000149262)
(0.202818 0 0.000147262)
(0.202432 0 0.0001453)
(0.202052 0 0.000143379)
(0.201676 0 0.000141499)
(0.201305 0 0.000139655)
(0.200939 0 0.000137849)
(0.200578 0 0.000136081)
(0.200221 0 0.00013435)
(0.199869 0 0.000132651)
(0.19952 0 0.000130992)
(0.199177 0 0.000129365)
(0.198837 0 0.000127768)
(0.198501 0 0.000126205)
(0.19817 0 0.000124676)
(0.197842 0 0.000123179)
(0.197518 0 0.000121714)
(0.197198 0 0.00012028)
(0.196882 0 0.000118873)
(0.196569 0 0.000117498)
(0.19626 0 0.00011615)
(0.195955 0 0.000114828)
(0.195652 0 0.000113535)
(0.195354 0 0.000112267)
(0.195058 0 0.000111025)
(0.194766 0 0.000109806)
(0.194476 0 0.000108609)
(0.19419 0 0.000107437)
(0.193907 0 0.000106285)
(0.193627 0 0.000105155)
(0.19335 0 0.000104037)
(0.193076 0 0.000102937)
(0.192804 0 0.000101853)
(0.192536 0 0.000100778)
(0.19227 0 9.97165e-05)
(0.192006 0 9.86534e-05)
(0.191746 0 9.76057e-05)
(0.191488 0 9.65446e-05)
(0.191233 0 9.54981e-05)
(0.19098 0 9.44324e-05)
(0.19073 0 9.336e-05)
(0.190483 0 9.22886e-05)
(0.190238 0 9.11626e-05)
(0.189996 0 9.00506e-05)
(0.189757 0 8.88965e-05)
(0.18952 0 8.77053e-05)
(0.189286 0 8.64749e-05)
(0.189055 0 8.52062e-05)
(0.188827 0 8.38906e-05)
(0.188602 0 8.25299e-05)
(0.18838 0 8.11119e-05)
(0.18816 0 7.96451e-05)
(0.187945 0 7.81187e-05)
(0.187732 0 7.65478e-05)
(0.187524 0 7.4925e-05)
(0.187317 0 7.32759e-05)
(0.187116 0 7.1592e-05)
(0.186916 0 6.99095e-05)
(0.186722 0 6.82251e-05)
(0.18653 0 6.65839e-05)
(0.186343 0 6.49851e-05)
(0.186157 0 6.35179e-05)
(0.185978 0 6.21856e-05)
(0.185797 0 6.10562e-05)
(0.185624 0 6.00705e-05)
(0.185448 0 5.93225e-05)
(0.185281 0 5.87703e-05)
(0.185108 0 5.85462e-05)
(0.184945 0 5.85784e-05)
(0.184773 0 5.90243e-05)
(0.184612 0 5.9772e-05)
(0.184438 0 6.10363e-05)
(0.184276 0 6.2626e-05)
(0.184096 0 6.48792e-05)
(0.183932 0 6.74346e-05)
(0.183742 0 7.08524e-05)
(0.18357 0 7.47337e-05)
(0.183364 0 7.97045e-05)
(0.18318 0 8.50883e-05)
(0.182951 0 9.17646e-05)
(0.182748 0 9.86146e-05)
(0.182488 0 0.000106741)
(0.18226 0 0.000114379)
(0.18196 0 0.00012305)
(0.181703 0 0.000130255)
(0.181356 0 0.000137955)
(0.181069 0 0.000143518)
(0.180676 0 0.000149415)
(0.180364 0 0.000152532)
(0.17993 0 0.000155104)
(0.179608 0 0.000153009)
(0.179155 0 0.00014845)
(0.178854 0 0.000138427)
(0.178408 0 0.000125935)
(0.178158 0 0.000110575)
(0.177735 0 9.80426e-05)
(0.177555 0 9.04507e-05)
(0.177142 0 9.53568e-05)
(0.177004 0 0.000123388)
(0.176505 0 0.000168365)
(0.176299 0 0.00023482)
(0.175445 0 0.000312794)
(0.175011 0 0.000370444)
(0.173886 0 0.000387328)
(0.173346 0 0.000375993)
(0.172076 0 0.000349966)
(0.171548 0 0.000314585)
(0.170238 0 0.000267211)
(0.1699 0 0.000214787)
(0.168698 0 0.000181565)
(-0.131364 0 0.119265)
(-0.179525 0 0.0643734)
(-0.192028 0 0.0154345)
(-0.173117 0 -0.023547)
(-0.126539 0 -0.0501652)
(-0.0646108 0 -0.0656875)
(0.00931171 0 -0.0736123)
(0.0856704 0 -0.0749862)
(0.161766 0 -0.0723674)
(0.233498 0 -0.0673394)
(0.299479 0 -0.0611499)
(0.359563 0 -0.0548736)
(0.413668 0 -0.0489512)
(0.462091 0 -0.0435329)
(0.505272 0 -0.0386449)
(0.543699 0 -0.0342668)
(0.577826 0 -0.0303555)
(0.60809 0 -0.0268726)
(0.634904 0 -0.0237795)
(0.658643 0 -0.0210385)
(0.679652 0 -0.0186149)
(0.698248 0 -0.0164776)
(0.714717 0 -0.0145969)
(0.729317 0 -0.0129447)
(0.742277 0 -0.0114952)
(0.753802 0 -0.0102239)
(0.764069 0 -0.0091098)
(0.773237 0 -0.0081328)
(0.781439 0 -0.00727562)
(0.788799 0 -0.00652265)
(0.795415 0 -0.00585961)
(0.801383 0 -0.00527456)
(0.806772 0 -0.00475655)
(0.811655 0 -0.00429627)
(0.816082 0 -0.00388557)
(0.820108 0 -0.00351761)
(0.823768 0 -0.00318629)
(0.827104 0 -0.00288656)
(0.830138 0 -0.0026137)
(0.832907 0 -0.00236422)
(0.835419 0 -0.00213422)
(0.837707 0 -0.00192161)
(0.839772 0 -0.00172309)
(0.841642 0 -0.00153781)
(0.843314 0 -0.00136245)
(0.844812 0 -0.00119755)
(0.84613 0 -0.00103924)
(0.847288 0 -0.000889671)
(0.848281 0 -0.00074378)
(0.849121 0 -0.000606062)
(0.849809 0 -0.000469892)
(0.850349 0 -0.000342345)
(0.850746 0 -0.000217624)
(0.850996 0 -9.93541e-05)
(0.851113 0 1.8388e-05)
(0.851087 0 0.000137356)
(0.850931 0 0.000250032)
(0.850641 0 0.000360917)
(0.850219 0 0.00046837)
(0.849666 0 0.000573271)
(0.848983 0 0.000675188)
(0.848172 0 0.000774651)
(0.847233 0 0.000871279)
(0.846167 0 0.000965104)
(0.844975 0 0.00105618)
(0.843659 0 0.00114378)
(0.842217 0 0.00122874)
(0.840652 0 0.00131025)
(0.838963 0 0.00138903)
(0.837152 0 0.00146436)
(0.835217 0 0.00153702)
(0.83316 0 0.0016065)
(0.830978 0 0.00167256)
(0.828672 0 0.00173585)
(0.826243 0 0.00179664)
(0.823685 0 0.00185395)
(0.821001 0 0.00190956)
(0.818187 0 0.00196162)
(0.815241 0 0.00201163)
(0.812161 0 0.00205971)
(0.808943 0 0.00210559)
(0.805587 0 0.00214958)
(0.802091 0 0.002193)
(0.798451 0 0.00223562)
(0.794665 0 0.00227823)
(0.790733 0 0.00231959)
(0.786654 0 0.00236104)
(0.782427 0 0.00240309)
(0.778051 0 0.00244638)
(0.773529 0 0.00249114)
(0.768862 0 0.00253759)
(0.764053 0 0.00258589)
(0.759105 0 0.00263688)
(0.754025 0 0.0026907)
(0.748818 0 0.0027465)
(0.743491 0 0.0028051)
(0.738052 0 0.00286511)
(0.732508 0 0.00292745)
(0.726865 0 0.00299233)
(0.721133 0 0.0030594)
(0.71532 0 0.00312793)
(0.709435 0 0.00319749)
(0.703485 0 0.00326755)
(0.69748 0 0.00333763)
(0.691425 0 0.00340721)
(0.685329 0 0.00347575)
(0.679199 0 0.00354272)
(0.67304 0 0.00360756)
(0.666857 0 0.00366944)
(0.660652 0 0.00372982)
(0.65443 0 0.00379111)
(0.648198 0 0.00384392)
(0.64196 0 0.00389195)
(0.635719 0 0.00393558)
(0.62948 0 0.00397475)
(0.623245 0 0.00400951)
(0.617019 0 0.00403962)
(0.610804 0 0.00406503)
(0.604605 0 0.00408597)
(0.598424 0 0.00410235)
(0.592265 0 0.00411432)
(0.58613 0 0.00412183)
(0.580023 0 0.00412515)
(0.573946 0 0.00412365)
(0.567907 0 0.00411742)
(0.561902 0 0.00410779)
(0.555936 0 0.00409479)
(0.550011 0 0.00407849)
(0.544129 0 0.00405906)
(0.538293 0 0.00403664)
(0.532505 0 0.00401145)
(0.526766 0 0.00398398)
(0.52108 0 0.00395088)
(0.515449 0 0.00391692)
(0.509873 0 0.00388203)
(0.504355 0 0.00384524)
(0.498897 0 0.00380602)
(0.4935 0 0.00376911)
(0.488164 0 0.00372755)
(0.482893 0 0.00368401)
(0.477686 0 0.00363901)
(0.472546 0 0.00359274)
(0.467472 0 0.0035454)
(0.462467 0 0.00349708)
(0.45753 0 0.00344835)
(0.452663 0 0.0033954)
(0.447865 0 0.00334438)
(0.443138 0 0.00329321)
(0.438481 0 0.00324172)
(0.433895 0 0.00318993)
(0.42938 0 0.00313785)
(0.424936 0 0.0030856)
(0.420564 0 0.00303579)
(0.416262 0 0.00298391)
(0.412032 0 0.0029319)
(0.407872 0 0.00287994)
(0.403783 0 0.00282815)
(0.399764 0 0.00277662)
(0.395815 0 0.00272538)
(0.391936 0 0.0026745)
(0.388125 0 0.00262401)
(0.384383 0 0.00257396)
(0.380708 0 0.00252438)
(0.377101 0 0.00247533)
(0.37356 0 0.00242682)
(0.370086 0 0.00237889)
(0.366676 0 0.00233156)
(0.36333 0 0.00228485)
(0.360048 0 0.00223857)
(0.356829 0 0.00219284)
(0.353672 0 0.00214781)
(0.350576 0 0.0021035)
(0.34754 0 0.00205991)
(0.344563 0 0.00201704)
(0.341645 0 0.00197492)
(0.338783 0 0.00193353)
(0.335978 0 0.00189289)
(0.333229 0 0.001853)
(0.330534 0 0.00181385)
(0.327892 0 0.00177545)
(0.325303 0 0.0017378)
(0.322765 0 0.00170088)
(0.320278 0 0.00166471)
(0.317841 0 0.00162928)
(0.315453 0 0.00159457)
(0.313112 0 0.00156059)
(0.310818 0 0.00152733)
(0.308571 0 0.00149477)
(0.306368 0 0.00146292)
(0.304209 0 0.00143175)
(0.302094 0 0.00140128)
(0.300021 0 0.00137126)
(0.29799 0 0.00134145)
(0.295999 0 0.00131291)
(0.294047 0 0.00128512)
(0.292135 0 0.00125796)
(0.29026 0 0.00123141)
(0.288423 0 0.00120547)
(0.286623 0 0.00118012)
(0.284857 0 0.00115536)
(0.283127 0 0.00113116)
(0.281431 0 0.00110753)
(0.279769 0 0.00108444)
(0.278139 0 0.00106188)
(0.276541 0 0.00103985)
(0.274974 0 0.00101834)
(0.273438 0 0.000997332)
(0.271932 0 0.000976816)
(0.270455 0 0.000956786)
(0.269007 0 0.00093723)
(0.267586 0 0.000918139)
(0.266194 0 0.000899506)
(0.264827 0 0.00088132)
(0.263487 0 0.000863565)
(0.262173 0 0.000846226)
(0.260883 0 0.000829293)
(0.259618 0 0.000812755)
(0.258377 0 0.000796605)
(0.257159 0 0.000780833)