/*--------------------------------*- C++ -*----------------------------------*\
| =========                 |                                                 |
| \\      /  F ield         | OpenFOAM: The Open Source CFD Toolbox           |
|  \\    /   O peration     | Version:  v2012                                 |
|   \\  /    A nd           | Website:  www.openfoam.com                      |
|    \\/     M anipulation  |                                                 |
\*---------------------------------------------------------------------------*/
FoamFile
{
    version     2.0;
    format      ascii;
    class       volVectorField;
    location    "80";
    object      wallShearStress;
}
// * * * * * * * * * * * * * * * * * * * * * * * * * * * * * * * * * * * * * //

dimensions      [0 2 -2 0 0 0 0];


internalField   uniform (0 0 0);

boundaryField
{
    left
    {
        type            calculated;
        value           uniform (0 0 0);
    }
    inlet
    {
        type            calculated;
        value           uniform (0 0 0);
    }
    side1
    {
        type            empty;
    }
    side2
    {
        type            empty;
    }
    right
    {
        type            calculated;
        value           uniform (0 0 0);
    }
    top
    {
        type            calculated;
        value           uniform (0 0 0);
    }
    down
    {
        type            calculated;
        value           nonuniform List<vector> 
401
(
(0.000314703 4.49735e-20 -6.11845e-05)
(0.000559358 5.83933e-20 -4.51282e-05)
(0.000645488 6.08428e-20 -5.8972e-06)
(0.00064735 5.72904e-20 3.06041e-05)
(0.000513887 4.51174e-20 5.12359e-05)
(0.00036944 3.25875e-20 5.52353e-05)
(0.000205955 2.0604e-20 4.80611e-05)
(8.65048e-05 1.15348e-20 3.38579e-05)
(1.28795e-05 4.66953e-21 1.63667e-05)
(-1.68639e-05 4.16272e-21 1.63283e-05)
(-8.07863e-05 6.51902e-21 2.64361e-05)
(-0.000172279 8.18699e-21 3.21162e-05)
(-0.00027819 9.69243e-21 3.48033e-05)
(-0.000390228 1.12665e-20 3.5546e-05)
(-0.000503056 1.2979e-20 3.50201e-05)
(-0.000613273 1.48233e-20 3.36847e-05)
(-0.000718692 1.67595e-20 3.18461e-05)
(-0.000818003 1.87373e-20 2.97235e-05)
(-0.000910464 2.07077e-20 2.74694e-05)
(-0.000995807 2.26289e-20 2.51972e-05)
(-0.00107404 2.44683e-20 2.29807e-05)
(-0.0011454 2.62035e-20 2.08664e-05)
(-0.0012102 2.78202e-20 1.88831e-05)
(-0.00126891 2.93114e-20 1.70466e-05)
(-0.00132197 3.06756e-20 1.53623e-05)
(-0.00136988 3.19156e-20 1.38288e-05)
(-0.00141309 3.30364e-20 1.24418e-05)
(-0.00145208 3.40455e-20 1.11925e-05)
(-0.00148724 3.49509e-20 1.0071e-05)
(-0.001519 3.57617e-20 9.0659e-06)
(-0.00154765 3.64861e-20 8.1655e-06)
(-0.00157358 3.7133e-20 7.35902e-06)
(-0.00159699 3.77094e-20 6.6352e-06)
(-0.00161822 3.82232e-20 5.98541e-06)
(-0.00163739 3.86799e-20 5.39933e-06)
(-0.00165479 3.90861e-20 4.87057e-06)
(-0.00167047 3.94456e-20 4.39023e-06)
(-0.00168472 3.9764e-20 3.95468e-06)
(-0.0016975 4.00434e-20 3.55479e-06)
(-0.0017091 4.02888e-20 3.19064e-06)
(-0.00171942 4.05007e-20 2.85122e-06)
(-0.00172876 4.06837e-20 2.54188e-06)
(-0.00173694 4.0837e-20 2.24725e-06)
(-0.00174431 4.09648e-20 1.98101e-06)
(-0.0017506 4.10654e-20 1.71857e-06)
(-0.00175621 4.11431e-20 1.48753e-06)
(-0.00176079 4.11949e-20 1.24614e-06)
(-0.00176481 4.12256e-20 1.04604e-06)
(-0.00176783 4.12308e-20 8.13981e-07)
(-0.00177039 4.12163e-20 6.43874e-07)
(-0.00177194 4.11764e-20 4.04939e-07)
(-0.00177316 4.11183e-20 2.66776e-07)
(-0.00177336 3.36412e-20 -4.99448e-09)
(-0.00177317 3.3118e-20 -8.94435e-08)
(-0.00177234 4.01477e-20 -2.07672e-07)
(-0.00177083 4.06597e-20 -3.22012e-07)
(-0.00176874 4.04911e-20 -4.39471e-07)
(-0.00176608 4.03016e-20 -5.52215e-07)
(-0.00176285 4.00908e-20 -6.62349e-07)
(-0.00175909 3.98592e-20 -7.71038e-07)
(-0.0017548 3.96067e-20 -8.77722e-07)
(-0.00175002 3.9334e-20 -9.81817e-07)
(-0.00174474 3.90412e-20 -1.08344e-06)
(-0.00173901 3.87287e-20 -1.18124e-06)
(-0.00173282 3.83968e-20 -1.27593e-06)
(-0.00172622 3.80461e-20 -1.36552e-06)
(-0.0017192 3.76772e-20 -1.45115e-06)
(-0.00171183 3.72906e-20 -1.53066e-06)
(-0.00170408 3.68869e-20 -1.60395e-06)
(-0.00169602 3.64669e-20 -1.66964e-06)
(-0.00168764 3.60311e-20 -1.72812e-06)
(-0.001679 3.55805e-20 -1.77867e-06)
(-0.00167009 3.51156e-20 -1.8208e-06)
(-0.00166097 3.46374e-20 -1.85469e-06)
(-0.00165164 3.41467e-20 -1.88103e-06)
(-0.00164216 3.36443e-20 -1.89799e-06)
(-0.00163253 3.31313e-20 -1.90759e-06)
(-0.0016228 3.26081e-20 -1.90778e-06)
(-0.00161299 3.20761e-20 -1.90014e-06)
(-0.00160313 3.15359e-20 -1.88357e-06)
(-0.00159326 3.09883e-20 -1.8589e-06)
(-0.00158341 3.04347e-20 -1.82681e-06)
(-0.00157358 2.98754e-20 -1.78706e-06)
(-0.00156384 2.93113e-20 -1.7402e-06)
(-0.00155418 2.87438e-20 -1.6886e-06)
(-0.00154463 2.81733e-20 -1.63174e-06)
(-0.00153519 2.76006e-20 -1.57095e-06)
(-0.00152587 2.70264e-20 -1.50812e-06)
(-0.0015167 2.64514e-20 -1.44289e-06)
(-0.00150766 2.58761e-20 -1.37811e-06)
(-0.00149876 2.53013e-20 -1.31524e-06)
(-0.00148998 2.47274e-20 -1.25534e-06)
(-0.0014813 2.41551e-20 -1.20487e-06)
(-0.00147268 2.35847e-20 -1.16155e-06)
(-0.0014641 2.30169e-20 -1.12698e-06)
(-0.00145549 2.24519e-20 -1.10649e-06)
(-0.00144683 2.18902e-20 -1.09874e-06)
(-0.00143804 2.13324e-20 -1.10921e-06)
(-0.00142908 2.07785e-20 -1.13651e-06)
(-0.00141989 2.0229e-20 -1.18066e-06)
(-0.00141042 1.96842e-20 -1.24147e-06)
(-0.00140061 1.91446e-20 -1.31802e-06)
(-0.00139041 1.86103e-20 -1.40918e-06)
(-0.00137979 1.80817e-20 -1.51262e-06)
(-0.00136872 1.75591e-20 -1.62697e-06)
(-0.00135717 1.7043e-20 -1.74942e-06)
(-0.00134512 1.65334e-20 -1.87709e-06)
(-0.00133257 1.60309e-20 -2.00712e-06)
(-0.00131952 1.55356e-20 -2.13769e-06)
(-0.00130599 1.50479e-20 -2.26537e-06)
(-0.00129199 1.45681e-20 -2.38969e-06)
(-0.00127753 1.40964e-20 -2.50945e-06)
(-0.00126265 1.36331e-20 -2.62389e-06)
(-0.00124737 1.31785e-20 -2.73137e-06)
(-0.00123172 1.27327e-20 -2.83093e-06)
(-0.00121574 1.2296e-20 -2.92269e-06)
(-0.00119946 1.18686e-20 -3.00431e-06)
(-0.00118293 1.14506e-20 -3.07768e-06)
(-0.00116616 1.10422e-20 -3.14231e-06)
(-0.00114921 1.06435e-20 -3.19854e-06)
(-0.0011321 1.02546e-20 -3.24477e-06)
(-0.00111488 9.87542e-21 -3.28293e-06)
(-0.00109756 9.50627e-21 -3.31194e-06)
(-0.0010802 9.14687e-21 -3.33405e-06)
(-0.00106281 8.79772e-21 -3.34867e-06)
(-0.00104541 8.45826e-21 -3.35547e-06)
(-0.00102806 8.12853e-21 -3.35537e-06)
(-0.00101076 7.80855e-21 -3.34946e-06)
(-0.000993548 7.49827e-21 -3.33764e-06)
(-0.00097644 7.19759e-21 -3.32103e-06)
(-0.000959453 6.90642e-21 -3.29863e-06)
(-0.00094261 6.62457e-21 -3.27325e-06)
(-0.000925924 6.35214e-21 -3.23975e-06)
(-0.000909414 6.08874e-21 -3.20143e-06)
(-0.000893089 5.83417e-21 -3.16064e-06)
(-0.000876967 5.58831e-21 -3.11928e-06)
(-0.000861055 5.35108e-21 -3.07383e-06)
(-0.000845366 5.122e-21 -3.03182e-06)
(-0.000829912 4.90129e-21 -2.98743e-06)
(-0.000814696 4.68865e-21 -2.93946e-06)
(-0.000799728 4.48386e-21 -2.88923e-06)
(-0.00078501 4.28669e-21 -2.83696e-06)
(-0.00077055 4.09696e-21 -2.78394e-06)
(-0.000756347 3.91447e-21 -2.7291e-06)
(-0.000742412 3.73898e-21 -2.67531e-06)
(-0.00072874 3.57052e-21 -2.61644e-06)
(-0.000715335 3.40855e-21 -2.55795e-06)
(-0.000702197 3.25299e-21 -2.50067e-06)
(-0.00068933 3.10365e-21 -2.4443e-06)
(-0.00067673 2.96035e-21 -2.3881e-06)
(-0.0006644 2.82289e-21 -2.33279e-06)
(-0.000652335 2.69108e-21 -2.27696e-06)
(-0.000640535 2.5646e-21 -2.22502e-06)
(-0.000628999 2.44348e-21 -2.1729e-06)
(-0.000617723 2.32748e-21 -2.12019e-06)
(-0.000606704 2.21638e-21 -2.06757e-06)
(-0.000595939 2.11001e-21 -2.01537e-06)
(-0.000585425 2.00819e-21 -1.96382e-06)
(-0.000575159 1.91075e-21 -1.91304e-06)
(-0.000565136 1.81753e-21 -1.86311e-06)
(-0.000555354 1.72837e-21 -1.81406e-06)
(-0.000545807 1.64311e-21 -1.76592e-06)
(-0.000536492 1.5616e-21 -1.71873e-06)
(-0.000527405 1.48369e-21 -1.67251e-06)
(-0.000518541 1.40923e-21 -1.62725e-06)
(-0.000509896 1.33809e-21 -1.58299e-06)
(-0.000501466 1.27013e-21 -1.53972e-06)
(-0.000493246 1.20522e-21 -1.49745e-06)
(-0.00048523 1.14323e-21 -1.45625e-06)
(-0.000477416 1.08405e-21 -1.41608e-06)
(-0.000469798 1.02755e-21 -1.37688e-06)
(-0.000462373 9.73625e-22 -1.33868e-06)
(-0.000455135 9.22162e-22 -1.30146e-06)
(-0.000448079 8.73057e-22 -1.26523e-06)
(-0.000441203 8.26209e-22 -1.22996e-06)
(-0.0004345 7.81518e-22 -1.19565e-06)
(-0.000427967 7.3889e-22 -1.16229e-06)
(-0.000421599 6.98235e-22 -1.12985e-06)
(-0.000415393 6.59466e-22 -1.09833e-06)
(-0.000409343 6.22499e-22 -1.0677e-06)
(-0.000403446 5.87254e-22 -1.03795e-06)
(-0.000397697 5.53653e-22 -1.00906e-06)
(-0.000392094 5.21623e-22 -9.81014e-07)
(-0.000386631 4.91094e-22 -9.53787e-07)
(-0.000381305 4.61997e-22 -9.27365e-07)
(-0.000376113 4.34267e-22 -9.01726e-07)
(-0.00037105 4.07844e-22 -8.7685e-07)
(-0.000366113 3.82667e-22 -8.5272e-07)
(-0.000361299 3.58679e-22 -8.29315e-07)
(-0.000356603 3.35827e-22 -8.06616e-07)
(-0.000352024 3.14058e-22 -7.84606e-07)
(-0.000347557 2.93322e-22 -7.63363e-07)
(-0.000343199 2.73572e-22 -7.42773e-07)
(-0.000338948 2.54764e-22 -7.22755e-07)
(-0.0003348 2.36853e-22 -7.03322e-07)
(-0.000330753 2.19799e-22 -6.84479e-07)
(-0.000326803 2.03561e-22 -6.66213e-07)
(-0.000322947 1.88102e-22 -6.48509e-07)
(-0.000319184 1.73386e-22 -6.31341e-07)
(-0.00031551 1.59379e-22 -6.14699e-07)
(-0.000311923 1.46049e-22 -5.98573e-07)
(-0.00030842 1.33363e-22 -5.82948e-07)
(-0.000305 1.21292e-22 -5.67801e-07)
(-0.000301659 1.09808e-22 -5.5312e-07)
(-0.000298395 9.8883e-23 -5.38889e-07)
(-0.000295207 8.84921e-23 -5.25091e-07)
(-0.000292092 7.86102e-23 -5.11717e-07)
(-0.000289048 6.92137e-23 -4.98749e-07)
(-0.000286073 6.02801e-23 -4.86176e-07)
(-0.000283165 5.17883e-23 -4.73984e-07)
(-0.000280323 4.37176e-23 -4.62163e-07)
(-0.000277543 3.60487e-23 -4.50699e-07)
(-0.000274826 2.87631e-23 -4.39583e-07)
(-0.000272168 2.1843e-23 -4.28789e-07)
(-0.000269569 1.52718e-23 -4.18317e-07)
(-0.000267027 9.03367e-24 -4.08166e-07)
(-0.000264539 3.11307e-24 -3.98324e-07)
(-0.000262105 -2.50463e-24 -3.88778e-07)
(-0.000259724 -7.83334e-24 -3.79518e-07)
(-0.000257392 -1.28863e-23 -3.70534e-07)
(-0.000255111 -1.76761e-23 -3.61816e-07)
(-0.000252877 -2.22148e-23 -3.53355e-07)
(-0.000250689 -2.65138e-23 -3.45142e-07)
(-0.000248547 -3.05841e-23 -3.3717e-07)
(-0.000246449 -3.44362e-23 -3.2943e-07)
(-0.000244395 -3.80799e-23 -3.21916e-07)
(-0.000242381 -4.15247e-23 -3.14619e-07)
(-0.000240409 -4.47799e-23 -3.07535e-07)
(-0.000238476 -4.78538e-23 -3.00651e-07)
(-0.000236582 -5.07548e-23 -2.93967e-07)
(-0.000234726 -5.34906e-23 -2.87469e-07)
(-0.000232906 -5.60688e-23 -2.81159e-07)
(-0.000231121 -5.84965e-23 -2.75029e-07)
(-0.000229372 -6.07804e-23 -2.69067e-07)
(-0.000227656 -6.29271e-23 -2.63277e-07)
(-0.000225973 -6.49426e-23 -2.57648e-07)
(-0.000224322 -6.68329e-23 -2.52177e-07)
(-0.000222703 -6.86037e-23 -2.46856e-07)
(-0.000221114 -7.02603e-23 -2.41682e-07)
(-0.000219554 -7.18078e-23 -2.36653e-07)
(-0.000218024 -7.32512e-23 -2.31759e-07)
(-0.000216522 -7.4595e-23 -2.26999e-07)
(-0.000215047 -7.58438e-23 -2.22369e-07)
(-0.000213599 -7.70019e-23 -2.17864e-07)
(-0.000212177 -7.80732e-23 -2.13481e-07)
(-0.000210781 -7.90617e-23 -2.09215e-07)
(-0.00020941 -7.9971e-23 -2.05063e-07)
(-0.000208063 -8.08047e-23 -2.01022e-07)
(-0.00020674 -8.15661e-23 -1.97087e-07)
(-0.00020544 -8.22584e-23 -1.93256e-07)
(-0.000204162 -8.28849e-23 -1.89526e-07)
(-0.000202907 -8.34483e-23 -1.85894e-07)
(-0.000201673 -8.39514e-23 -1.82355e-07)
(-0.00020046 -8.4397e-23 -1.78908e-07)
(-0.000199268 -8.47877e-23 -1.75551e-07)
(-0.000198095 -8.51257e-23 -1.72279e-07)
(-0.000196942 -8.54134e-23 -1.69093e-07)
(-0.000195808 -8.56533e-23 -1.65986e-07)
(-0.000194693 -8.58471e-23 -1.62958e-07)
(-0.000193596 -8.59971e-23 -1.60006e-07)
(-0.000192517 -8.61053e-23 -1.57128e-07)
(-0.000191455 -8.61734e-23 -1.54324e-07)
(-0.00019041 -8.62033e-23 -1.51589e-07)
(-0.000189382 -8.61966e-23 -1.48921e-07)
(-0.00018837 -8.61548e-23 -1.46319e-07)
(-0.000187374 -8.60798e-23 -1.43781e-07)
(-0.000186393 -8.59727e-23 -1.41304e-07)
(-0.000185428 -8.58351e-23 -1.38889e-07)
(-0.000184477 -8.56684e-23 -1.36532e-07)
(-0.000183541 -8.54739e-23 -1.34233e-07)
(-0.000182619 -8.52527e-23 -1.3199e-07)
(-0.000181711 -8.50061e-23 -1.298e-07)
(-0.000180816 -8.47354e-23 -1.2766e-07)
(-0.000179935 -8.44414e-23 -1.25575e-07)
(-0.000179066 -8.41252e-23 -1.23537e-07)
(-0.00017821 -8.37881e-23 -1.21547e-07)
(-0.000177367 -8.34307e-23 -1.19605e-07)
(-0.000176536 -8.30541e-23 -1.17709e-07)
(-0.000175716 -8.26591e-23 -1.15855e-07)
(-0.000174909 -8.22467e-23 -1.14047e-07)
(-0.000174112 -8.18175e-23 -1.12281e-07)
(-0.000173327 -8.13723e-23 -1.10557e-07)
(-0.000172552 -8.09119e-23 -1.08873e-07)
(-0.000171789 -8.04369e-23 -1.07224e-07)
(-0.000171035 -7.99483e-23 -1.05614e-07)
(-0.000170292 -7.94464e-23 -1.04041e-07)
(-0.000169559 -7.8932e-23 -1.02508e-07)
(-0.000168835 -7.84056e-23 -1.01008e-07)
(-0.000168122 -7.78679e-23 -9.95437e-08)
(-0.000167417 -7.73192e-23 -9.81101e-08)
(-0.000166722 -7.67604e-23 -9.67125e-08)
(-0.000166035 -7.61917e-23 -9.5344e-08)
(-0.000165357 -7.56137e-23 -9.40064e-08)
(-0.000164688 -7.5027e-23 -9.27001e-08)
(-0.000164028 -7.44318e-23 -9.14253e-08)
(-0.000163375 -7.38286e-23 -9.0176e-08)
(-0.000162731 -7.3218e-23 -8.89577e-08)
(-0.000162094 -7.26002e-23 -8.77673e-08)
(-0.000161465 -7.19755e-23 -8.66039e-08)
(-0.000160844 -7.13446e-23 -8.5467e-08)
(-0.00016023 -7.07075e-23 -8.43573e-08)
(-0.000159623 -7.00647e-23 -8.327e-08)
(-0.000159023 -6.94165e-23 -8.22084e-08)
(-0.00015843 -6.87633e-23 -8.11683e-08)
(-0.000157844 -6.81053e-23 -8.01538e-08)
(-0.000157265 -6.74429e-23 -7.91633e-08)
(-0.000156692 -6.67763e-23 -7.81961e-08)
(-0.000156125 -6.61058e-23 -7.72506e-08)
(-0.000155565 -6.54316e-23 -7.6326e-08)
(-0.00015501 -6.4754e-23 -7.54243e-08)
(-0.000154462 -6.40732e-23 -7.45374e-08)
(-0.000153919 -6.33896e-23 -7.36731e-08)
(-0.000153382 -6.27032e-23 -7.283e-08)
(-0.00015285 -6.20142e-23 -7.20016e-08)
(-0.000152324 -6.13229e-23 -7.11934e-08)
(-0.000151804 -6.06294e-23 -7.03992e-08)
(-0.000151288 -5.99339e-23 -6.96214e-08)
(-0.000150778 -5.92366e-23 -6.88614e-08)
(-0.000150272 -5.85376e-23 -6.81159e-08)
(-0.000149772 -5.78369e-23 -6.73849e-08)
(-0.000149276 -5.71346e-23 -6.66601e-08)
(-0.000148786 -5.64311e-23 -6.595e-08)
(-0.0001483 -5.57262e-23 -6.52511e-08)
(-0.000147818 -5.50199e-23 -6.45572e-08)
(-0.000147342 -5.43124e-23 -6.38708e-08)
(-0.00014687 -5.36037e-23 -6.31835e-08)
(-0.000146402 -5.28938e-23 -6.25069e-08)
(-0.000145939 -5.21825e-23 -6.18208e-08)
(-0.000145481 -5.14703e-23 -6.11458e-08)
(-0.000145028 -5.07561e-23 -6.04524e-08)
(-0.000144579 -5.00414e-23 -5.97597e-08)
(-0.000144135 -4.93242e-23 -5.90667e-08)
(-0.000143696 -4.86061e-23 -5.8327e-08)
(-0.000143262 -4.78858e-23 -5.76128e-08)
(-0.000142834 -4.71639e-23 -5.68512e-08)
(-0.00014241 -4.64397e-23 -5.60733e-08)
(-0.000141992 -4.57141e-23 -5.52635e-08)
(-0.00014158 -4.49857e-23 -5.44311e-08)
(-0.000141174 -4.42559e-23 -5.35599e-08)
(-0.000140774 -4.35231e-23 -5.2664e-08)
(-0.000140382 -4.2789e-23 -5.17203e-08)
(-0.000139994 -4.20519e-23 -5.07483e-08)
(-0.000139616 -4.13142e-23 -4.97223e-08)
(-0.000139243 -4.05737e-23 -4.86772e-08)
(-0.000138881 -3.98337e-23 -4.75841e-08)
(-0.000138523 -3.90914e-23 -4.64802e-08)
(-0.000138177 -3.83512e-23 -4.53347e-08)
(-0.000137835 -3.76094e-23 -4.42045e-08)
(-0.000137506 -3.68718e-23 -4.30644e-08)
(-0.000137179 -3.61334e-23 -4.1959e-08)
(-0.000136867 -3.54021e-23 -4.0862e-08)
(-0.000136554 -3.46715e-23 -3.98755e-08)
(-0.000136256 -3.39498e-23 -3.89715e-08)
(-0.000135955 -3.32278e-23 -3.82324e-08)
(-0.000135669 -3.25169e-23 -3.7568e-08)
(-0.000135374 -3.18063e-23 -3.7118e-08)
(-0.000135095 -3.11102e-23 -3.67681e-08)
(-0.000134802 -3.04139e-23 -3.66982e-08)
(-0.000134526 -2.9735e-23 -3.67425e-08)
(-0.000134228 -2.90548e-23 -3.71367e-08)
(-0.000133948 -2.83955e-23 -3.76426e-08)
(-0.000133635 -2.77329e-23 -3.85848e-08)
(-0.000133344 -2.70955e-23 -3.95918e-08)
(-0.000133007 -2.64518e-23 -4.11541e-08)
(-0.000132694 -2.58379e-23 -4.26942e-08)
(-0.000132321 -2.52163e-23 -4.48345e-08)
(-0.000131974 -2.46265e-23 -4.69876e-08)
(-0.00013155 -2.40197e-23 -5.00191e-08)
(-0.000131158 -2.34481e-23 -5.29082e-08)
(-0.000130666 -2.28476e-23 -5.6767e-08)
(-0.000130214 -2.22796e-23 -6.01e-08)
(-0.000129641 -2.16636e-23 -6.43245e-08)
(-0.000129122 -2.10754e-23 -6.74161e-08)
(-0.000128462 -2.04189e-23 -7.12742e-08)
(-0.000127878 -1.97833e-23 -7.30488e-08)
(-0.000127143 -1.90711e-23 -7.54015e-08)
(-0.000126516 -1.8396e-23 -7.56228e-08)
(-0.000125723 -1.76416e-23 -7.70238e-08)
(-0.000125068 -1.69117e-23 -7.69323e-08)
(-0.000124229 -1.60431e-23 -7.76192e-08)
(-0.000123586 -1.51898e-23 -7.49667e-08)
(-0.00012276 -1.42335e-23 -7.14719e-08)
(-0.000122206 -1.33638e-23 -6.26297e-08)
(-0.00012148 -1.2489e-23 -5.21087e-08)
(-0.000121095 -1.18173e-23 -3.68895e-08)
(-0.000120505 -1.12372e-23 -2.35186e-08)
(-0.000120295 -1.09966e-23 -9.54867e-09)
(-0.00011981 -1.1129e-23 -7.68393e-09)
(-0.000119614 -1.18364e-23 -2.37283e-08)
(-0.000118798 -1.29139e-23 -7.59897e-08)
(-0.000117888 -1.37665e-23 -1.64343e-07)
(-0.00011581 -1.24024e-23 -2.41711e-07)
(-0.000114194 -9.92961e-24 -2.92216e-07)
(-0.000111806 -7.4372e-24 -3.11389e-07)
(-0.000110142 -5.46265e-24 -3.06878e-07)
(-0.000107829 -3.76056e-24 -2.88649e-07)
(-0.000106427 -2.36378e-24 -2.64246e-07)
(-0.000104397 -8.6666e-25 -2.23574e-07)
(-0.000103499 4.95415e-25 -1.76589e-07)
(-0.000102088 1.58481e-24 -1.17751e-07)
(5.25968e-05 2.21778e-20 -6.45742e-05)
)
;
    }
    wallSop
    {
        type            calculated;
        value           uniform (0 0 0);
    }
}


// ************************************************************************* //
